Converted from Au.poscar

4 atoms
1 atom types

0.000000 4.171289 xlo xhi
0.000000 4.171289 ylo yhi
0.000000 4.171289 zlo zhi

Masses

1 196.970000

Atoms

1 1 0.000000 0.000000 0.000000
2 1 0.000000 2.085644 2.085644
3 1 2.085644 0.000000 2.085644
4 1 2.085644 2.085644 0.000000
