ITEM: TIMESTEP
0
ITEM: NUMBER OF ATOMS
4
ITEM: BOX BOUNDS pp pp pp
0.0000000000000000e+00 4.1712889999999998e+00
0.0000000000000000e+00 4.1712889999999998e+00
0.0000000000000000e+00 4.1712889999999998e+00
ITEM: ATOMS id type x y z
3 1 1.99254 0.0363133 2.01214
2 1 0.0267921 1.98015 2.10217
4 1 2.23026 2.22183 0.0647373
1 1 4.09299 4.10429 4.16354
ITEM: TIMESTEP
20000
ITEM: NUMBER OF ATOMS
4
ITEM: BOX BOUNDS pp pp pp
0.0000000000000000e+00 4.1712889999999998e+00
0.0000000000000000e+00 4.1712889999999998e+00
0.0000000000000000e+00 4.1712889999999998e+00
ITEM: ATOMS id type x y z
3 1 2.11254 -0.0182836 2.10471
2 1 -0.0500107 2.18988 2.06725
4 1 1.93895 2.00417 0.0390265
1 1 4.3411 4.16681 4.13159
ITEM: TIMESTEP
40000
ITEM: NUMBER OF ATOMS
4
ITEM: BOX BOUNDS pp pp pp
0.0000000000000000e+00 4.1712889999999998e+00
0.0000000000000000e+00 4.1712889999999998e+00
0.0000000000000000e+00 4.1712889999999998e+00
ITEM: ATOMS id type x y z
3 1 2.18416 -0.0869536 2.02813
2 1 -0.111498 2.14153 2.16158
4 1 1.99717 2.09794 -0.0459564
1 1 4.27274 4.19006 4.19882
ITEM: TIMESTEP
60000
ITEM: NUMBER OF ATOMS
4
ITEM: BOX BOUNDS pp pp pp
0.0000000000000000e+00 4.1712889999999998e+00
0.0000000000000000e+00 4.1712889999999998e+00
0.0000000000000000e+00 4.1712889999999998e+00
ITEM: ATOMS id type x y z
3 1 2.24907 0.11169 2.09595
2 1 -0.138545 2.01636 2.06685
4 1 2.09424 2.14819 -0.048079
1 1 4.13781 4.06634 4.22785
ITEM: TIMESTEP
80000
ITEM: NUMBER OF ATOMS
4
ITEM: BOX BOUNDS pp pp pp
0.0000000000000000e+00 4.1712889999999998e+00
0.0000000000000000e+00 4.1712889999999998e+00
0.0000000000000000e+00 4.1712889999999998e+00
ITEM: ATOMS id type x y z
3 1 2.09626 -0.0536667 2.00688
2 1 0.101368 2.14655 2.23831
4 1 1.99071 2.02596 -0.0156196
1 1 4.15423 4.22374 4.113
ITEM: TIMESTEP
100000
ITEM: NUMBER OF ATOMS
4
ITEM: BOX BOUNDS pp pp pp
0.0000000000000000e+00 4.1712889999999998e+00
0.0000000000000000e+00 4.1712889999999998e+00
0.0000000000000000e+00 4.1712889999999998e+00
ITEM: ATOMS id type x y z
3 1 1.99282 0.12171 2.049
2 1 0.0184987 1.95901 2.10752
4 1 2.03271 2.08758 -0.067168
1 1 4.29854 4.17428 4.25323
ITEM: TIMESTEP
120000
ITEM: NUMBER OF ATOMS
4
ITEM: BOX BOUNDS pp pp pp
0.0000000000000000e+00 4.1712889999999998e+00
0.0000000000000000e+00 4.1712889999999998e+00
0.0000000000000000e+00 4.1712889999999998e+00
ITEM: ATOMS id type x y z
3 1 2.00102 0.00789787 2.14025
2 1 0.0456361 2.05138 2.13062
4 1 2.1289 2.10105 -0.0965978
1 1 4.16703 4.18225 4.16831
ITEM: TIMESTEP
140000
ITEM: NUMBER OF ATOMS
4
ITEM: BOX BOUNDS pp pp pp
0.0000000000000000e+00 4.1712889999999998e+00
0.0000000000000000e+00 4.1712889999999998e+00
0.0000000000000000e+00 4.1712889999999998e+00
ITEM: ATOMS id type x y z
3 1 2.08682 -0.0599368 2.03835
2 1 0.0398603 2.1508 2.14645
4 1 2.18386 2.07588 -0.0299583
1 1 4.03204 4.17584 4.18774
ITEM: TIMESTEP
160000
ITEM: NUMBER OF ATOMS
4
ITEM: BOX BOUNDS pp pp pp
0.0000000000000000e+00 4.1712889999999998e+00
0.0000000000000000e+00 4.1712889999999998e+00
0.0000000000000000e+00 4.1712889999999998e+00
ITEM: ATOMS id type x y z
3 1 2.02125 0.0833322 2.02896
2 1 -0.0460382 2.03714 2.18197
4 1 2.26178 2.12739 0.0889431
1 1 4.10558 4.09471 4.0427
ITEM: TIMESTEP
180000
ITEM: NUMBER OF ATOMS
4
ITEM: BOX BOUNDS pp pp pp
0.0000000000000000e+00 4.1712889999999998e+00
0.0000000000000000e+00 4.1712889999999998e+00
0.0000000000000000e+00 4.1712889999999998e+00
ITEM: ATOMS id type x y z
3 1 2.15868 0.048867 2.11111
2 1 -0.0511014 2.08029 2.07444
4 1 1.91365 2.08716 0.003962
1 1 4.32135 4.12625 4.15307
