LAMMPS (22 Jul 2025 - Update 2)
OMP_NUM_THREADS environment is not set. Defaulting to 1 thread.
  using 1 OpenMP thread(s) per MPI task
plugin load /mnt/c/one/jse-3.7.3b/jse/lib/lmp/plugin/cf6514f47e12a59d/liblmpplugin.so
Loading plugin: jse pair by liqa
Loading plugin: jse fix by liqa
units           metal
boundary        p p p

read_data       Au.data
Reading data file ...
  orthogonal box = (0 0 0) to (4.171289 4.171289 4.171289)
  2 by 2 by 2 MPI processor grid
  reading atoms ...
  4 atoms
  read_data CPU = 0.004 seconds

timestep        0.001

pair_style      jse jsex.nnap.PairNNAP
pair_coeff      * * Au.jnn Au

# Initialize velocities
velocity        all create 800 12345 dist gaussian mom yes rot yes

thermo          5000
thermo_style    custom step temp press vol pe ke etotal
thermo_modify   flush yes

# NVT ensemble
fix             1 all nvt temp 800 800 0.1

# Equilibration
run             40000
Neighbor list info ...
  update: every = 1 steps, delay = 0 steps, check = yes
  max neighbors/atom: 2000, page size: 100000
  master list distance cutoff = 10.5
  ghost atom cutoff = 10.5
  binsize = 5.25, bins = 1 1 1
  1 neighbor lists, perpetual/occasional/extra = 1 0 0
  (1) pair jse, perpetual
      attributes: full, newton on
      pair build: full/bin/atomonly
      stencil: full/bin/3d
      bin: standard
Per MPI rank memory allocation (min/avg/max) = 3.063 | 3.063 | 3.063 Mbytes
   Step          Temp          Press          Volume         PotEng         KinEng         TotEng    
         0   800           -10176.585      72.578977     -12.892608      0.31022435    -12.582384    
      5000   1502.1047      8558.1813      72.578977     -12.778479      0.5824868     -12.195992    
     10000   935.12888      26125.388      72.578977     -12.588786      0.36262468    -12.226161    
     15000   124.53855      4638.1895      72.578977     -12.746572      0.048293613   -12.698278    
     20000   296.14793      21341.027      72.578977     -12.614055      0.11484037    -12.499215    
     25000   565.42067      10248.863      72.578977     -12.721254      0.21925907    -12.501995    
     30000   280.26263      9651.2033      72.578977     -12.712885      0.10868037    -12.604205    
     35000   1330.0325      6326.86        72.578977     -12.787359      0.51576059    -12.271598    
     40000   354.60709      14537.813      72.578977     -12.670935      0.13750969    -12.533425    
Loop time of 11.1586 on 8 procs for 40000 steps with 4 atoms

Performance: 309.717 ns/day, 0.077 hours/ns, 3584.690 timesteps/s, 14.339 katom-step/s
100.0% CPU use with 8 MPI tasks x 1 OpenMP threads

MPI task timing breakdown:
Section |  min time  |  avg time  |  max time  |%varavg| %total
---------------------------------------------------------------
Pair    | 0.23965    | 1.4743     | 10.069     | 267.5 | 13.21
Neigh   | 0          | 0          | 0          |   0.0 |  0.00
Comm    | 0.71461    | 4.4823     | 10.727     | 224.5 | 40.17
Output  | 0.00017218 | 0.00025516 | 0.00072839 |   0.0 |  0.00
Modify  | 0.051834   | 5.0939     | 10.114     | 219.4 | 45.65
Other   |            | 0.1078     |            |       |  0.97

Nlocal:            0.5 ave           4 max           0 min
Histogram: 7 0 0 0 0 0 0 0 0 1
Nghost:          863.5 ave         864 max         860 min
Histogram: 1 0 0 0 0 0 0 0 0 7
Neighs:              0 ave           0 max           0 min
Histogram: 8 0 0 0 0 0 0 0 0 0
FullNghs:          124 ave         992 max           0 min
Histogram: 7 0 0 0 0 0 0 0 0 1

Total # of neighbors = 992
Ave neighs/atom = 248
Neighbor list builds = 0
Dangerous builds = 0

# Production run
reset_timestep  0

dump            1 all custom 20000 dump.lammpstrj id type x y z

run             180000
Per MPI rank memory allocation (min/avg/max) = 3.063 | 3.063 | 3.063 Mbytes
   Step          Temp          Press          Volume         PotEng         KinEng         TotEng    
         0   354.60709      14537.813      72.578977     -12.670935      0.13750969    -12.533425    
      5000   1116.7852      28336.86       72.578977     -12.602188      0.43306746    -12.16912     
     10000   511.79441      53988.901      72.578977     -12.355225      0.19846386    -12.156762    
     15000   2213.6888      36422.463      72.578977     -12.584754      0.85842519    -11.726329    
     20000   325.20366      15706.615      72.578977     -12.664549      0.12610762    -12.538441    
     25000   1075.8733      2799.9568      72.578977     -12.805685      0.41720263    -12.388483    
     30000   467.27454      25061.618      72.578977     -12.59206       0.18119992    -12.41086     
     35000   744.31945      43551.672      72.578977     -12.423843      0.28863252    -12.13521     
     40000   996.56604      11273.188      72.578977     -12.732764      0.38644881    -12.346315    
     45000   923.9416       30071.973      72.578977     -12.574031      0.35828647    -12.215744    
     50000   250.75571      6762.8329      72.578977     -12.734613      0.097238157   -12.637374    
     55000   177.92703      28259.555      72.578977     -12.549533      0.068996622   -12.480537    
     60000   327.90407      27154.824      72.578977     -12.560553      0.12715478    -12.433398    
     65000   521.10204      21428.676      72.578977     -12.622488      0.20207318    -12.420415    
     70000   503.8095       49892.167      72.578977     -12.374721      0.19536747    -12.179353    
     75000   1174.7329      39014.871      72.578977     -12.518567      0.45553844    -12.063029    
     80000   500.12364      13106.07       72.578977     -12.6938        0.19393816    -12.499862    
     85000   1114.1839      26007.535      72.578977     -12.616455      0.43205872    -12.184396    
     90000   453.06399      33176.025      72.578977     -12.525416      0.17568935    -12.349727    
     95000   571.52834      1646.4323      72.578977     -12.789311      0.22162751    -12.567684    
    100000   1274.2109      31444.985      72.578977     -12.57697       0.49411404    -12.082856    
    105000   388.17951      39257.279      72.578977     -12.46768       0.15052842    -12.317151    
    110000   811.26892      20473.654      72.578977     -12.649175      0.31459422    -12.334581    
    115000   1084.7489      1910.3813      72.578977     -12.81094       0.42064439    -12.390295    
    120000   493.60958      1545.6076      72.578977     -12.787753      0.19141214    -12.596341    
    125000   1340.2053      21697.486      72.578977     -12.660895      0.51970539    -12.14119     
    130000   947.11793      19421.695      72.578977     -12.660354      0.3672738     -12.293081    
    135000   809.77956      62553.122      72.578977     -12.276966      0.31401667    -11.962949    
    140000   968.18529      9954.1627      72.578977     -12.742551      0.37544331    -12.367108    
    145000   676.89087      51709.762      72.578977     -12.364988      0.26248504    -12.102503    
    150000   648.80727      11136.562      72.578977     -12.720531      0.25159477    -12.468936    
    155000   371.55036      18719.053      72.578977     -12.644133      0.14407996    -12.500053    
    160000   2551.9581      33133.918      72.578977     -12.631118      0.98959942    -11.641519    
    165000   1217.6543     -460.79746      72.578977     -12.835933      0.4721825     -12.363751    
    170000   452.75513      40084.495      72.578977     -12.475352      0.17556958    -12.299782    
    175000   522.49916      30521.996      72.578977     -12.557413      0.20261495    -12.354798    
    180000   306.9518       10519.485      72.578977     -12.707011      0.1190299     -12.587982    
Loop time of 19.2127 on 8 procs for 180000 steps with 4 atoms

Performance: 809.463 ns/day, 0.030 hours/ns, 9368.790 timesteps/s, 37.475 katom-step/s
98.9% CPU use with 8 MPI tasks x 1 OpenMP threads

MPI task timing breakdown:
Section |  min time  |  avg time  |  max time  |%varavg| %total
---------------------------------------------------------------
Pair    | 0.8421     | 6.6191     | 12.737     | 224.0 | 34.45
Neigh   | 0          | 0          | 0          |   0.0 |  0.00
Comm    | 5.7545     | 11.846     | 17.613     | 167.0 | 61.66
Output  | 0.0015544  | 0.0018735  | 0.0038094  |   1.7 |  0.01
Modify  | 0.43556    | 0.46736    | 0.48901    |   2.6 |  2.43
Other   |            | 0.2782     |            |       |  1.45

Nlocal:            0.5 ave           1 max           0 min
Histogram: 4 0 0 0 0 0 0 0 0 4
Nghost:          758.5 ave         792 max         720 min
Histogram: 2 0 0 0 0 4 0 0 0 2
Neighs:              0 ave           0 max           0 min
Histogram: 8 0 0 0 0 0 0 0 0 0
FullNghs:       129.75 ave         267 max           0 min
Histogram: 4 0 0 0 0 0 0 0 0 4

Total # of neighbors = 1038
Ave neighs/atom = 259.5
Neighbor list builds = 0
Dangerous builds = 0
Total wall time: 0:00:31
