LAMMPS data file via write_data, version 22 Jul 2025, timestep = 127, units = metal

30 atoms
1 atom types

0 6.886538086165923 xlo xhi
0 6.646648424215874 ylo yhi
0 7.86500204304981 zlo zhi
-2.0931071764645077 -1.6328278210089677 0.6267317837649508 xy xz yz

Masses

1 196.96657

Atoms # atomic

23 1 1.7643728617568413 1.2706171010705225 2.2751482059265427 0 0 0
20 1 -0.5315417078794987 2.1242996032659693 2.5040378606730544 0 0 0
26 1 0.4877853574380616 1.5717536314077223 4.561315198985921 0 0 0
16 1 -0.8185427441999524 2.1930003805694924 7.6801491780463245 0 0 0
18 1 0.46884311895945174 3.657643229132756 6.188747729896913 0 0 0
27 1 1.4783346342097308 1.4176739560692908 6.819879572417546 0 1 0
2 1 -1.5001362302884473 4.512382004593688 1.988604346084787 1 0 0
8 1 0.6855520605905164 5.782329382814832 2.936516541878957 0 0 0
12 1 0.7826978672404087 3.70237305530922 1.2801637129983379 0 0 0
15 1 -0.2092277999893994 5.968778750154263 0.5026104239829058 1 0 0
1 1 -0.4811439830597014 3.9607938725700333 4.046333739078483 0 0 0
13 1 -0.6862070447979594 6.053601325673252 5.140114114052819 0 0 0
4 1 -1.8264289669014593 4.51843738918406 6.735613527529546 0 0 0
11 1 -2.8959524956474585 6.762633266218181 6.047929091995174 0 0 0
29 1 4.059364642982999 0.5359094170497658 1.300177632148204 0 1 0
10 1 5.405423425084936 2.4268103048015464 0.3614236933243526 0 0 0
17 1 4.01563537286973 2.61498766694621 2.867989271070455 0 0 0
6 1 2.975397377938767 2.771576583178407 0.6060221462698107 0 0 0
22 1 5.187910878820005 0.3029692154046028 3.614220883442406 0 0 0
21 1 1.858214956836243 3.4701134498579873 3.6828749550903983 0 0 0
25 1 3.9132521771536175 0.9569469447520929 6.9189123227204865 -1 0 0
24 1 2.970609986873025 1.1874379014597076 4.550356896322607 0 0 0
3 1 2.8992921216641 3.3135850074049493 5.944170257695035 0 0 0
30 1 5.091734304447937 2.3824378335682974 5.270467922257968 -1 0 0
28 1 2.9034589497232464 4.897521917007676 2.0006613196084087 0 0 0
5 1 4.467921267454239 6.677697663928632 1.4117955200101302 -1 0 0
14 1 1.8146650879828006 5.548782178580357 5.250197955741173 0 0 0
7 1 2.7634403650958603 5.293989113804141 7.5955334886670745 0 0 0
9 1 0.328501567486019 5.754328771959903 7.497200373607715 0 0 0
19 1 4.110150626502664 4.815081884307974 4.275131045531481 0 0 0

Velocities

23 0 0 0
20 0 0 0
26 0 0 0
16 0 0 0
18 0 0 0
27 0 0 0
2 0 0 0
8 0 0 0
12 0 0 0
15 0 0 0
1 0 0 0
13 0 0 0
4 0 0 0
11 0 0 0
29 0 0 0
10 0 0 0
17 0 0 0
6 0 0 0
22 0 0 0
21 0 0 0
25 0 0 0
24 0 0 0
3 0 0 0
30 0 0 0
28 0 0 0
5 0 0 0
14 0 0 0
7 0 0 0
9 0 0 0
19 0 0 0
