 vasp.6.1.2 22Jul20 (build Aug 14 2024 10:12:25) complex                        
  
 executed on                 TJTH date 2025.10.18  15:13:24
 running on    7 total cores
 distrk:  each k-point on    7 cores,    1 groups
 distr:  one band on NCORE=   1 cores,    7 groups


--------------------------------------------------------------------------------------------------------


 INCAR:
 POTCAR:    PAW_PBE Au 04Oct2007                  
 -----------------------------------------------------------------------------
|                                                                             |
|           W    W    AA    RRRRR   N    N  II  N    N   GGGG   !!!           |
|           W    W   A  A   R    R  NN   N  II  NN   N  G    G  !!!           |
|           W    W  A    A  R    R  N N  N  II  N N  N  G       !!!           |
|           W WW W  AAAAAA  RRRRR   N  N N  II  N  N N  G  GGG   !            |
|           WW  WW  A    A  R   R   N   NN  II  N   NN  G    G                |
|           W    W  A    A  R    R  N    N  II  N    N   GGGG   !!!           |
|                                                                             |
|     The value NPAR = 2 specified in the INCAR file was overwritten,         |
|     because it was not compatible with the 7 processes available:           |
|     NPAR = 7                                                                |
|     was used instead, please check that this makes sense for your           |
|     machine.                                                                |
|                                                                             |
 -----------------------------------------------------------------------------

 -----------------------------------------------------------------------------
|                                                                             |
|           W    W    AA    RRRRR   N    N  II  N    N   GGGG   !!!           |
|           W    W   A  A   R    R  NN   N  II  NN   N  G    G  !!!           |
|           W    W  A    A  R    R  N N  N  II  N N  N  G       !!!           |
|           W WW W  AAAAAA  RRRRR   N  N N  II  N  N N  G  GGG   !            |
|           WW  WW  A    A  R   R   N   NN  II  N   NN  G    G                |
|           W    W  A    A  R    R  N    N  II  N    N   GGGG   !!!           |
|                                                                             |
|     For optimal performance we recommend to set                             |
|       NCORE = 4 - approx SQRT(number of cores).                             |
|     NCORE specifies how many cores store one orbital (NPAR=cpu/NCORE).      |
|     This setting can greatly improve the performance of VASP for DFT.       |
|     The default, NCORE=1 might be grossly inefficient on modern             |
|     multi-core architectures or massively parallel machines. Do your        |
|     own testing!!!!                                                         |
|     Unfortunately you need to use the default for GW and RPA                |
|     calculations (for HF NCORE is supported but not extensively tested      |
|     yet).                                                                   |
|                                                                             |
 -----------------------------------------------------------------------------

 POTCAR:    PAW_PBE Au 04Oct2007                  
   SHA256 =  d0044ae04e2bdce24051b198fc5c053d722a5bc6fe3c3b100514a13fc5d2db88 Au/POTCAR             
   COPYR  = (c) Copyright 04Oct2007 Georg Kresse                                                    
   COPYR  = This file is part of the software VASP. Any use, copying, and all other rights are regul
   COPYR  = If you do not have a valid VASP license, you may not use, copy or distribute this file. 
   VRHFIN =Au: s1d10                                                                                
   LEXCH  = PE                                                                                      
   EATOM  =   926.0867 eV,   68.0654 Ry                                                             
                                                                                                    
   TITEL  = PAW_PBE Au 04Oct2007                                                                    
   LULTRA =        F    use ultrasoft PP ?                                                          
   IUNSCR =        1    unscreen: 0-lin 1-nonlin 2-no                                               
   RPACOR =    2.330    partial core radius                                                         
   POMASS =  196.966; ZVAL   =   11.000    mass and valenz                                          
   RCORE  =    2.500    outmost cutoff radius                                                       
   RWIGS  =    2.840; RWIGS  =    1.503    wigner-seitz radius (au A)                               
   ENMAX  =  229.943; ENMIN  =  172.457 eV                                                          
   ICORE  =        3    local potential                                                             
   LCOR   =        T    correct aug charges                                                         
   LPAW   =        T    paw PP                                                                      
   EAUG   =  356.670                                                                                
   DEXC   =    0.000                                                                                
   RMAX   =    2.562    core radius for proj-oper                                                   
   RAUG   =    1.300    factor for augmentation sphere                                              
   RDEP   =    2.598    radius for radial grids                                                     
   RDEPT  =    2.193    core radius for aug-charge                                                  
                                                                                                    
   Atomic configuration                                                                             
   16 entries                                                                                       
     n  l   j            E        occ.                                                              
     1  0  0.50    -80748.5001   2.0000                                                             
     2  0  0.50    -14244.7466   2.0000                                                             
     2  1  1.50    -12310.9591   6.0000                                                             
     3  0  0.50     -3362.1768   2.0000                                                             
     3  1  1.50     -2801.5463   6.0000                                                             
     3  2  2.50     -2203.8206  10.0000                                                             
     4  0  0.50      -729.8168   2.0000                                                             
     4  1  1.50      -546.0527   6.0000                                                             
     4  2  2.50      -325.7302  10.0000                                                             
     4  3  3.50       -81.1472  14.0000                                                             
     5  0  0.50      -108.3201   2.0000                                                             
     5  1  1.50       -59.7479   6.0000                                                             
     5  2  2.50        -6.8783  10.0000                                                             
     6  0  0.50        -5.7602   1.0000                                                             
     6  1  1.50        -6.8029   0.0000                                                             
     5  3  2.50        -1.3606   0.0000                                                             
   Description                                                                                      
     l       E           TYP  RCUT    TYP  RCUT                                                     
     2     -6.8782861     23  2.500                                                                 
     2     -8.2388687     23  2.500                                                                 
     0     -5.7601759     23  2.500                                                                 
     0     -0.8493231     23  2.500                                                                 
     1     -2.7211652     23  2.500                                                                 
     1     27.2116520     23  2.500                                                                 
     3     -1.3605826     23  2.500                                                                 
  local pseudopotential read in
  partial core-charges read in
  partial kinetic energy density read in
  atomic valenz-charges read in
  non local Contribution for L=           2  read in
    real space projection operators read in
  non local Contribution for L=           2  read in
    real space projection operators read in
  non local Contribution for L=           0  read in
    real space projection operators read in
  non local Contribution for L=           0  read in
    real space projection operators read in
  non local Contribution for L=           1  read in
    real space projection operators read in
  non local Contribution for L=           1  read in
    real space projection operators read in
    PAW grid and wavefunctions read in
 
   number of l-projection  operators is LMAX  =           6
   number of lm-projection operators is LMMAX =          18
 
 Optimization of the real space projectors (new method)

 maximal supplied QI-value         = 15.12
 optimisation between [QCUT,QGAM] = [  8.77, 17.69] = [ 21.53, 87.61] Ry 
 Optimized for a Real-space Cutoff    1.60 Angstroem

   l    n(q)    QCUT    max X(q) W(low)/X(q) W(high)/X(q)  e(spline) 
   2      7     8.768    60.898    0.16E-03    0.38E-03    0.13E-06
   2      7     8.768    58.894    0.17E-03    0.39E-03    0.13E-06
   0      8     8.768   109.617    0.93E-04    0.14E-03    0.58E-07
   0      8     8.768    75.026    0.90E-04    0.14E-03    0.56E-07
   1      8     8.768    16.344    0.18E-03    0.34E-04    0.83E-07
   1      8     8.768    10.160    0.16E-03    0.16E-04    0.65E-07
  PAW_PBE Au 04Oct2007                  :
 energy of atom  1       EATOM= -926.0867
 kinetic energy error for atom=    0.0461 (will be added to EATOM!!)
 
 
 POSCAR: Au
  positions in direct lattice
  No initial velocities read in
 exchange correlation table for  LEXCH =        8
   RHO(1)=    0.500       N(1)  =     2000
   RHO(2)=  100.500       N(2)  =     4000
 


--------------------------------------------------------------------------------------------------------


 ion  position               nearest neighbor table
   1  0.527  0.540  0.645-   5 2.71   3 2.72   2 2.73   4 2.81   6 2.84   7 2.87
   2  0.524  0.441  0.640-   6 2.73  12 2.73   9 2.73   1 2.73   4 2.75
   3  0.447  0.591  0.640-   1 2.72   8 2.73   7 2.77  13 2.77   4 2.78
   4  0.443  0.491  0.630-   2 2.75   8 2.76   3 2.78  11 2.78   1 2.81   9 2.81
   5  0.603  0.587  0.615-   1 2.71  10 2.73   7 2.75  14 2.77   6 2.81
   6  0.597  0.486  0.597-   2 2.73  10 2.75  12 2.77  15 2.79   5 2.81   1 2.84
   7  0.520  0.624  0.585-  13 2.73   5 2.75   3 2.77  14 2.77  19 2.80   1 2.87
   8  0.379  0.550  0.586-   3 2.73  11 2.73  16 2.73   4 2.76  13 2.85  18 2.85
   9  0.461  0.408  0.576-  17 2.71  11 2.72   2 2.73   4 2.81  12 2.84  20 2.87
  10  0.654  0.545  0.544-  21 2.70   5 2.73  15 2.74   6 2.75  14 2.79
  11  0.378  0.453  0.568-   9 2.72   8 2.73  20 2.77  18 2.77   4 2.78
  12  0.557  0.406  0.555-   2 2.73  22 2.75   6 2.77  15 2.79  17 2.81   9 2.84
  13  0.432  0.629  0.550-  19 2.73   7 2.73  16 2.75   3 2.77  23 2.83   8 2.85
  14  0.593  0.619  0.522-  28 2.71   7 2.77   5 2.77  10 2.79  19 2.81  21 2.89
  15  0.619  0.463  0.503-  10 2.74  22 2.74   6 2.79  12 2.79  21 2.79  25 2.79
  16  0.346  0.607  0.514-  23 2.72   8 2.73  13 2.75  18 2.75
  17  0.491  0.362  0.496-   9 2.71  22 2.73  20 2.75  24 2.77  12 2.81
  18  0.375  0.515  0.491-  26 2.73  20 2.73  16 2.75  11 2.77  23 2.83   8 2.85
  19  0.504  0.638  0.488-  28 2.72  13 2.73   7 2.80  23 2.80  14 2.81  30 2.84
  20  0.423  0.431  0.484-  18 2.73  17 2.75  11 2.77  24 2.77  26 2.80   9 2.87
  21  0.626  0.550  0.453-  10 2.70  29 2.75  15 2.79  25 2.79  28 2.80  14 2.89
  22  0.575  0.386  0.461-  25 2.70  17 2.73  15 2.74  12 2.75  24 2.79
  23  0.421  0.598  0.455-  30 2.67  16 2.72  26 2.80  19 2.80  13 2.83  18 2.83
  24  0.495  0.424  0.420-  27 2.71  20 2.77  17 2.77  22 2.79  26 2.81  25 2.89
  25  0.585  0.469  0.411-  22 2.70  29 2.75  15 2.79  21 2.79  27 2.80  24 2.89
  26  0.437  0.506  0.418-  27 2.72  18 2.73  20 2.80  23 2.80  24 2.81  30 2.84
  27  0.509  0.497  0.356-  24 2.71  29 2.72  26 2.72  25 2.80  30 2.81
  28  0.577  0.634  0.428-  14 2.71  29 2.72  19 2.72  21 2.80  30 2.81
  29  0.581  0.558  0.367-  27 2.72  28 2.72  25 2.75  21 2.75  30 2.78
  30  0.496  0.586  0.401-  23 2.67  29 2.78  28 2.81  27 2.81  19 2.84  26 2.84
 

IMPORTANT INFORMATION: All symmetrisations will be switched off!
NOSYMM: (Re-)initialisation of all symmetry stuff for point group C_1.


----------------------------------------------------------------------------------------

                                     Primitive cell                                     

  volume of cell :   22488.9980

  direct lattice vectors                    reciprocal lattice vectors
    28.969268345  0.000000000  0.000000000     0.034519339  0.000000000  0.000000000
     0.000000000 27.606909616  0.000000000     0.000000000  0.036222816  0.000000000
     0.000000000  0.000000000 28.119965610     0.000000000  0.000000000  0.035561921

  length of vectors
    28.969268345 27.606909616 28.119965610     0.034519339  0.036222816  0.035561921

  position of ions in fractional coordinates (direct lattice)
     0.526871172  0.539548297  0.644918545
     0.524224776  0.440755871  0.639735893
     0.447041591  0.591044721  0.640128944
     0.442858547  0.490832365  0.630220575
     0.603319205  0.586644210  0.614531225
     0.596946668  0.486450613  0.597206268
     0.519850439  0.623654056  0.585081894
     0.379160838  0.550090473  0.585935503
     0.460746455  0.407587510  0.575671216
     0.654471778  0.544692101  0.544269750
     0.377811516  0.452886892  0.567627520
     0.556745224  0.406223254  0.555105573
     0.432008637  0.629307784  0.550380978
     0.593010036  0.619131495  0.521964736
     0.619038856  0.462663780  0.503409770
     0.346461301  0.607283018  0.514029080
     0.490534613  0.361567846  0.496416454
     0.374900475  0.515341037  0.490574241
     0.503719998  0.638419287  0.488061286
     0.423154391  0.430688348  0.483817972
     0.625726867  0.549624220  0.453101726
     0.575033805  0.386163037  0.461078613
     0.420653592  0.598325155  0.455294833
     0.495366133  0.424269847  0.419707675
     0.585144305  0.468635820  0.410600542
     0.437149246  0.505572203  0.418347806
     0.508681369  0.496647073  0.356152699
     0.577379348  0.633742758  0.428095564
     0.581428765  0.557730686  0.366915524
     0.495610410  0.586372437  0.401286583

  ion indices of the primitive-cell ions
   primitive index   ion index
                 1           1
                 2           2
                 3           3
                 4           4
                 5           5
                 6           6
                 7           7
                 8           8
                 9           9
                10          10
                11          11
                12          12
                13          13
                14          14
                15          15
                16          16
                17          17
                18          18
                19          19
                20          20
                21          21
                22          22
                23          23
                24          24
                25          25
                26          26
                27          27
                28          28
                29          29
                30          30

----------------------------------------------------------------------------------------

 
 
 KPOINTS: K-Spacing Value to Generate K-Mesh: 0.02

Automatic generation of k-mesh.
Space group operators:
 irot       det(A)        alpha          n_x          n_y          n_z        tau_x        tau_y        tau_z
    1     1.000000     0.000000     1.000000     0.000000     0.000000     0.000000     0.000000     0.000000
 
 Subroutine IBZKPT returns following result:
 ===========================================
 
 Found      1 irreducible k-points:
 
 Following reciprocal coordinates:
            Coordinates               Weight
  0.000000  0.000000  0.000000      1.000000
 
 Following cartesian coordinates:
            Coordinates               Weight
  0.000000  0.000000  0.000000      1.000000
 


--------------------------------------------------------------------------------------------------------




 Dimension of arrays:
   k-points           NKPTS =      1   k-points in BZ     NKDIM =      1   number of bands    NBANDS=    203
   number of dos      NEDOS =    301   number of ions     NIONS =     30
   non local maximal  LDIM  =      6   non local SUM 2l+1 LMDIM =     18
   total plane-waves  NPLWV = ******
   max r-space proj   IRMAX =   3312   max aug-charges    IRDMAX=  11893
   dimension x,y,z NGX =   168 NGY =  160 NGZ =  160
   dimension x,y,z NGXF=   336 NGYF=  320 NGZF=  320
   support grid    NGXF=   336 NGYF=  320 NGZF=  320
   ions per type =              30
   NGX,Y,Z   is equivalent  to a cutoff of   9.64,  9.64,  9.46 a.u.
   NGXF,Y,Z  is equivalent  to a cutoff of  19.28, 19.27, 18.92 a.u.

 SYSTEM =  unknown system                          
 POSCAR =  Au                                      

 Startparameter for this run:
   NWRITE =      2    write-flag & timer
   PREC   = accura    normal or accurate (medium, high low for compatibility)
   ISTART =      0    job   : 0-new  1-cont  2-samecut
   ICHARG =      2    charge: 1-file 2-atom 10-const
   ISPIN  =      1    spin polarized calculation?
   LNONCOLLINEAR =      F non collinear calculations
   LSORBIT =      F    spin-orbit coupling
   INIWAV =      1    electr: 0-lowe 1-rand  2-diag
   LASPH  =      T    aspherical Exc in radial PAW
   METAGGA=      F    non-selfconsistent MetaGGA calc.

 Electronic Relaxation 1
   ENCUT  =  298.9 eV  21.97 Ry    4.69 a.u.  40.84 38.92 39.64*2*pi/ulx,y,z
   ENINI  =  298.9     initial cutoff
   ENAUG  =  356.7 eV  augmentation charge cutoff
   NELM   =    200;   NELMIN=  2; NELMDL= -5     # of ELM steps 
   EDIFF  = 0.1E-04   stopping-criterion for ELM
   LREAL  =      T    real-space projection
   NLSPLINE    = F    spline interpolate recip. space projectors
   LCOMPAT=      F    compatible to vasp.4.4
   GGA_COMPAT  = F    GGA compatible to vasp.4.4-vasp.4.6
   LMAXPAW     = -100 max onsite density
   LMAXMIX     =    2 max onsite mixed and CHGCAR
   VOSKOWN=      0    Vosko Wilk Nusair interpolation
   ROPT   =   -0.00025
 Ionic relaxation
   EDIFFG = -.1E-01   stopping-criterion for IOM
   NSW    =    200    number of steps for IOM
   NBLOCK =      1;   KBLOCK =    200    inner block; outer block 
   IBRION =      2    ionic relax: 0-MD 1-quasi-New 2-CG
   NFREE  =      1    steps in history (QN), initial steepest desc. (CG)
   ISIF   =      2    stress and relaxation
   IWAVPR =     11    prediction:  0-non 1-charg 2-wave 3-comb
   ISYM   =      0    0-nonsym 1-usesym 2-fastsym
   LCORR  =      T    Harris-Foulkes like correction to forces

   POTIM  = 0.5000    time-step for ionic-motion
   TEIN   =    0.0    initial temperature
   TEBEG  =    0.0;   TEEND  =   0.0 temperature during run
   SMASS  =  -3.00    Nose mass-parameter (am)
   estimated Nose-frequenzy (Omega)   =  0.10E-29 period in steps = 0.13E+47 mass=  -0.192E-25a.u.
   SCALEE = 1.0000    scale energy and forces
   NPACO  =    256;   APACO  = 16.0  distance and # of slots for P.C.
   PSTRESS=    0.0 pullay stress

  Mass of Ions in am
   POMASS = 196.97
  Ionic Valenz
   ZVAL   =  11.00
  Atomic Wigner-Seitz radii
   RWIGS  =  -1.00
  virtual crystal weights 
   VCA    =   1.00
   NELECT =     330.0000    total number of electrons
   NUPDOWN=      -1.0000    fix difference up-down

 DOS related values:
   EMIN   =  10.00;   EMAX   =-10.00  energy-range for DOS
   EFERMI =   0.00
   ISMEAR =     0;   SIGMA  =   0.05  broadening in eV -4-tet -1-fermi 0-gaus

 Electronic relaxation 2 (details)
   IALGO  =     38    algorithm
   LDIAG  =      T    sub-space diagonalisation (order eigenvalues)
   LSUBROT=      F    optimize rotation matrix (better conditioning)
   TURBO    =      0    0=normal 1=particle mesh
   IRESTART =      0    0=no restart 2=restart with 2 vectors
   NREBOOT  =      0    no. of reboots
   NMIN     =      0    reboot dimension
   EREF     =   0.00    reference energy to select bands
   IMIX   =      4    mixing-type and parameters
     AMIX     =   0.40;   BMIX     =  1.00
     AMIX_MAG =   1.60;   BMIX_MAG =  1.00
     AMIN     =   0.10
     WC   =   100.;   INIMIX=   1;  MIXPRE=   1;  MAXMIX= -45

 Intra band minimization:
   WEIMIN = 0.0010     energy-eigenvalue tresh-hold
   EBREAK =  0.12E-07  absolut break condition
   DEPER  =   0.30     relativ break condition  

   TIME   =   0.40     timestep for ELM

  volume/ion in A,a.u.               =     749.63      5058.77
  Fermi-wavevector in a.u.,A,eV,Ry     =   0.400795  0.757394  2.185599  0.160637
  Thomas-Fermi vector in A             =   1.349943
 
 Write flags
   LWAVE        =      F    write WAVECAR
   LDOWNSAMPLE  =      F    k-point downsampling of WAVECAR
   LCHARG       =      T    write CHGCAR
   LVTOT        =      F    write LOCPOT, total local potential
   LVHAR        =      F    write LOCPOT, Hartree potential only
   LELF         =      F    write electronic localiz. function (ELF)
   LORBIT       =      0    0 simple, 1 ext, 2 COOP (PROOUT), +10 PAW based schemes


 Dipole corrections
   LMONO  =      F    monopole corrections only (constant potential shift)
   LDIPOL =      F    correct potential (dipole corrections)
   IDIPOL =      0    1-x, 2-y, 3-z, 4-all directions 
   EPSILON=  1.0000000 bulk dielectric constant

 Exchange correlation treatment:
   GGA     =    PE    GGA type
   LEXCH   =     8    internal setting for exchange type
   VOSKOWN=      0    Vosko Wilk Nusair interpolation
   LHFCALC =     F    Hartree Fock is set to
   LHFONE  =     F    Hartree Fock one center treatment
   AEXX    =    0.0000 exact exchange contribution

 Linear response parameters
   LEPSILON=     F    determine dielectric tensor
   LRPA    =     F    only Hartree local field effects (RPA)
   LNABLA  =     F    use nabla operator in PAW spheres
   LVEL    =     F    velocity operator in full k-point grid
   LINTERFAST=   F  fast interpolation
   KINTER  =     0    interpolate to denser k-point grid
   CSHIFT  =0.1000    complex shift for real part using Kramers Kronig
   OMEGAMAX=  -1.0    maximum frequency
   DEG_THRESHOLD= 0.2000000E-02 threshold for treating states as degnerate
   RTIME   =   -0.100 relaxation time in fs
  (WPLASMAI=    0.000 imaginary part of plasma frequency in eV, 0.658/RTIME)
   DFIELD  = 0.0000000 0.0000000 0.0000000 field for delta impulse in time
 
 Orbital magnetization related:
   ORBITALMAG=     F  switch on orbital magnetization
   LCHIMAG   =     F  perturbation theory with respect to B field
   DQ        =  0.001000  dq finite difference perturbation B field
   LLRAUG    =     F  two centre corrections for induced B field



--------------------------------------------------------------------------------------------------------


 conjugate gradient relaxation of ions
 charge density and potential will be updated during run
 non-spin polarized calculation
 Variant of blocked Davidson
 Davidson routine will perform the subspace rotation
 perform sub-space diagonalisation
    after iterative eigenvector-optimisation
 modified Broyden-mixing scheme, WC =      100.0
 initial mixing is a Kerker type mixing with AMIX =  0.4000 and BMIX =      1.0000
 Hartree-type preconditioning will be used
 using additional bands           38
 real space projection scheme for non local part
 use partial core corrections
 calculate Harris-corrections to forces 
   (improved forces if not selfconsistent)
 use gradient corrections 
 use of overlap-Matrix (Vanderbilt PP)
 Gauss-broadening in eV      SIGMA  =   0.05


--------------------------------------------------------------------------------------------------------


  energy-cutoff  :      298.93
  volume of cell :    22489.00
      direct lattice vectors                 reciprocal lattice vectors
    28.969268345  0.000000000  0.000000000     0.034519339  0.000000000  0.000000000
     0.000000000 27.606909616  0.000000000     0.000000000  0.036222816  0.000000000
     0.000000000  0.000000000 28.119965610     0.000000000  0.000000000  0.035561921

  length of vectors
    28.969268345 27.606909616 28.119965610     0.034519339  0.036222816  0.035561921


 
 k-points in units of 2pi/SCALE and weight: K-Spacing Value to Generate K-Mesh: 0.02
   0.00000000  0.00000000  0.00000000       1.000
 
 k-points in reciprocal lattice and weights: K-Spacing Value to Generate K-Mesh: 0.02
   0.00000000  0.00000000  0.00000000       1.000
 
 position of ions in fractional coordinates (direct lattice) 
   0.52687117  0.53954830  0.64491855
   0.52422478  0.44075587  0.63973589
   0.44704159  0.59104472  0.64012894
   0.44285855  0.49083236  0.63022058
   0.60331920  0.58664421  0.61453122
   0.59694667  0.48645061  0.59720627
   0.51985044  0.62365406  0.58508189
   0.37916084  0.55009047  0.58593550
   0.46074646  0.40758751  0.57567122
   0.65447178  0.54469210  0.54426975
   0.37781152  0.45288689  0.56762752
   0.55674522  0.40622325  0.55510557
   0.43200864  0.62930778  0.55038098
   0.59301004  0.61913150  0.52196474
   0.61903886  0.46266378  0.50340977
   0.34646130  0.60728302  0.51402908
   0.49053461  0.36156785  0.49641645
   0.37490048  0.51534104  0.49057424
   0.50372000  0.63841929  0.48806129
   0.42315439  0.43068835  0.48381797
   0.62572687  0.54962422  0.45310173
   0.57503381  0.38616304  0.46107861
   0.42065359  0.59832516  0.45529483
   0.49536613  0.42426985  0.41970768
   0.58514430  0.46863582  0.41060054
   0.43714925  0.50557220  0.41834781
   0.50868137  0.49664707  0.35615270
   0.57737935  0.63374276  0.42809556
   0.58142876  0.55773069  0.36691552
   0.49561041  0.58637244  0.40128658
 
 position of ions in cartesian coordinates  (Angst):
  15.26307236 14.89526107 18.13508731
  15.18640822 12.16790750 17.98935130
  12.95046781 16.31691818 18.00040388
  12.82928810 13.55036474 17.72178090
  17.47771595 16.19543367 17.28059691
  17.29310820 13.42939810 16.79341973
  15.05968687 17.21716115 16.45248274
  10.98401206 15.18629797 16.47648618
  13.34748770 11.25223156 16.18785479
  18.95956857 15.03726559 15.30484665
  10.94492319 12.50280751 15.96166635
  16.12850179 11.21456865 15.60954964
  12.51497413 17.37324311 15.47669416
  17.17906687 17.09230722 14.67763042
  17.93310274 12.77271714 14.15586541
  10.03673039 16.76520740 14.45448005
  14.21042884  9.98177083 13.95921361
  10.86059247 14.22697344 13.79493080
  14.59239978 17.62478356 13.72426658
  12.25847312 11.88997431 13.60494473
  18.12684951 15.17342617 12.74120496
  16.65830862 10.66076806 12.96551474
  12.18602678 16.51790848 12.80287506
  14.35039443 11.71277931 11.80216540
  16.95120238 12.93758673 11.54607313
  12.66389380 13.95728612 11.76392592
  14.73612707 13.71089085 10.01500164
  16.72625726 17.49567903 12.03803254
  16.84356591 15.39722065 10.31765192
  14.35747096 16.18793088 11.28416491
 


--------------------------------------------------------------------------------------------------------


 k-point   1 :   0.0000 0.0000 0.0000  plane waves:  263907

 maximum and minimum number of plane-waves per node :    263907   263907

 maximum number of plane-waves:    263907
 maximum index in each direction: 
   IXMAX=   40   IYMAX=   38   IZMAX=   39
   IXMIN=  -40   IYMIN=  -38   IZMIN=  -39


 serial   3D FFT for wavefunctions
 parallel 3D FFT for charge:
    minimum data exchange during FFTs selected (reduces bandwidth)


 total amount of memory used by VASP MPI-rank0   762414. kBytes
=======================================================================

   base      :      30000. kBytes
   nonlr-proj:      16723. kBytes
   fftplans  :     183145. kBytes
   grid      :     409374. kBytes
   one-center:        466. kBytes
   wavefun   :     122706. kBytes
 
     INWAV:  cpu time    0.0001: real time    0.0002
 Broyden mixing: mesh for mixing (old mesh)
   NGX = 81   NGY = 77   NGZ = 79
  (NGX  =336   NGY  =320   NGZ  =320)
  gives a total of 492723 points

 initial charge density was supplied:
 charge density of overlapping atoms calculated
 number of electron     330.0000000 magnetization 
 keeping initial charge density in first step


--------------------------------------------------------------------------------------------------------


 Maximum index for non-local projection operator         3181
 Maximum index for augmentation-charges         1672 (set IRDMAX)


--------------------------------------------------------------------------------------------------------


 First call to EWALD:  gamma=   0.063
 Maximum number of real-space cells 3x 3x 3
 Maximum number of reciprocal cells 3x 3x 3

    FEWALD:  cpu time    0.0751: real time    0.1043


--------------------------------------- Iteration      1(   1)  ---------------------------------------


    POTLOK:  cpu time    4.7769: real time    5.7804
    SETDIJ:  cpu time    0.3370: real time    0.6876
     EDDAV:  cpu time   38.2146: real time   60.7461
       DOS:  cpu time    0.0393: real time    0.0651
    --------------------------------------------
      LOOP:  cpu time   43.3679: real time   67.2792

 eigenvalue-minimisations  :   434
 total energy-change (2. order) : 0.2658879E+04  (-0.4638513E+04)
 number of electron     330.0000000 magnetization 
 augmentation part      330.0000000 magnetization 

 Free energy of the ion-electron system (eV)
  ---------------------------------------------------
  alpha Z        PSCENC =        46.61463558
  Ewald energy   TEWEN  =     79152.25378591
  -Hartree energ DENC   =   -105771.96048498
  -exchange      EXHF   =         0.00000000
  -V(xc)+E(xc)   XCENC  =       446.27715451
  PAW double counting   =     26222.92510058   -25530.30404472
  entropy T*S    EENTRO =        -0.09625509
  eigenvalues    EBANDS =       311.95017171
  atomic energy  EATOM  =     27781.21916726
  Solvation  Ediel_sol  =         0.00000000
  ---------------------------------------------------
  free energy    TOTEN  =      2658.87923076 eV

  energy without entropy =     2658.97548585  energy(sigma->0) =     2658.92735831


--------------------------------------------------------------------------------------------------------




--------------------------------------- Iteration      1(   2)  ---------------------------------------


     EDDAV:  cpu time   59.4063: real time   92.3108
       DOS:  cpu time    0.0153: real time    0.0198
    --------------------------------------------
      LOOP:  cpu time   59.4215: real time   92.3306

 eigenvalue-minimisations  :   756
 total energy-change (2. order) :-0.1308494E+04  (-0.1200617E+04)
 number of electron     330.0000000 magnetization 
 augmentation part      330.0000000 magnetization 

 Free energy of the ion-electron system (eV)
  ---------------------------------------------------
  alpha Z        PSCENC =        46.61463558
  Ewald energy   TEWEN  =     79152.25378591
  -Hartree energ DENC   =   -105771.96048498
  -exchange      EXHF   =         0.00000000
  -V(xc)+E(xc)   XCENC  =       446.27715451
  PAW double counting   =     26222.92510058   -25530.30404472
  entropy T*S    EENTRO =        -0.14727335
  eigenvalues    EBANDS =      -996.49304727
  atomic energy  EATOM  =     27781.21916726
  Solvation  Ediel_sol  =         0.00000000
  ---------------------------------------------------
  free energy    TOTEN  =      1350.38499352 eV

  energy without entropy =     1350.53226687  energy(sigma->0) =     1350.45863019


--------------------------------------------------------------------------------------------------------




--------------------------------------- Iteration      1(   3)  ---------------------------------------


     EDDAV:  cpu time   56.5034: real time   73.6584
       DOS:  cpu time    0.0010: real time    0.0010
    --------------------------------------------
      LOOP:  cpu time   56.5044: real time   73.6593

 eigenvalue-minimisations  :   616
 total energy-change (2. order) :-0.1039259E+04  (-0.9705675E+03)
 number of electron     330.0000000 magnetization 
 augmentation part      330.0000000 magnetization 

 Free energy of the ion-electron system (eV)
  ---------------------------------------------------
  alpha Z        PSCENC =        46.61463558
  Ewald energy   TEWEN  =     79152.25378591
  -Hartree energ DENC   =   -105771.96048498
  -exchange      EXHF   =         0.00000000
  -V(xc)+E(xc)   XCENC  =       446.27715451
  PAW double counting   =     26222.92510058   -25530.30404472
  entropy T*S    EENTRO =        -0.05662245
  eigenvalues    EBANDS =     -2035.84279722
  atomic energy  EATOM  =     27781.21916726
  Solvation  Ediel_sol  =         0.00000000
  ---------------------------------------------------
  free energy    TOTEN  =       311.12589447 eV

  energy without entropy =      311.18251691  energy(sigma->0) =      311.15420569


--------------------------------------------------------------------------------------------------------




--------------------------------------- Iteration      1(   4)  ---------------------------------------


     EDDAV:  cpu time   43.1740: real time   64.3604
       DOS:  cpu time    0.0010: real time    0.0010
    --------------------------------------------
      LOOP:  cpu time   43.1751: real time   64.3614

 eigenvalue-minimisations  :   546
 total energy-change (2. order) :-0.3240715E+03  (-0.2954953E+03)
 number of electron     330.0000000 magnetization 
 augmentation part      330.0000000 magnetization 

 Free energy of the ion-electron system (eV)
  ---------------------------------------------------
  alpha Z        PSCENC =        46.61463558
  Ewald energy   TEWEN  =     79152.25378591
  -Hartree energ DENC   =   -105771.96048498
  -exchange      EXHF   =         0.00000000
  -V(xc)+E(xc)   XCENC  =       446.27715451
  PAW double counting   =     26222.92510058   -25530.30404472
  entropy T*S    EENTRO =        -0.01329102
  eigenvalues    EBANDS =     -2359.95761954
  atomic energy  EATOM  =     27781.21916726
  Solvation  Ediel_sol  =         0.00000000
  ---------------------------------------------------
  free energy    TOTEN  =       -12.94559642 eV

  energy without entropy =      -12.93230540  energy(sigma->0) =      -12.93895091


--------------------------------------------------------------------------------------------------------




--------------------------------------- Iteration      1(   5)  ---------------------------------------


     EDDAV:  cpu time   48.8392: real time   76.2428
       DOS:  cpu time    0.0879: real time    0.1682
    CHARGE:  cpu time    3.9544: real time    5.3890
    MIXING:  cpu time    0.0811: real time    0.1724
    --------------------------------------------
      LOOP:  cpu time   52.9627: real time   81.9724

 eigenvalue-minimisations  :   588
 total energy-change (2. order) :-0.6468528E+02  (-0.5394200E+02)
 number of electron     329.9999979 magnetization 
 augmentation part      115.3736257 magnetization 

 Broyden mixing:
  rms(total) = 0.33298E+01    rms(broyden)= 0.33294E+01
  rms(prec ) = 0.33714E+01
  weight for this iteration     100.00

 Free energy of the ion-electron system (eV)
  ---------------------------------------------------
  alpha Z        PSCENC =        46.61463558
  Ewald energy   TEWEN  =     79152.25378591
  -Hartree energ DENC   =   -105771.96048498
  -exchange      EXHF   =         0.00000000
  -V(xc)+E(xc)   XCENC  =       446.27715451
  PAW double counting   =     26222.92510058   -25530.30404472
  entropy T*S    EENTRO =        -0.01665010
  eigenvalues    EBANDS =     -2424.63954140
  atomic energy  EATOM  =     27781.21916726
  Solvation  Ediel_sol  =         0.00000000
  ---------------------------------------------------
  free energy    TOTEN  =       -77.63087736 eV

  energy without entropy =      -77.61422726  energy(sigma->0) =      -77.62255231


--------------------------------------------------------------------------------------------------------




--------------------------------------- Iteration      1(   6)  ---------------------------------------


    POTLOK:  cpu time    3.4678: real time    6.9593
    SETDIJ:  cpu time    0.4330: real time    0.7452
     EDDAV:  cpu time   39.9845: real time   57.4970
       DOS:  cpu time    0.0011: real time    0.0141
    CHARGE:  cpu time    4.5366: real time    5.2878
    MIXING:  cpu time    0.0720: real time    0.1373
    --------------------------------------------
      LOOP:  cpu time   48.4950: real time   70.6406

 eigenvalue-minimisations  :   448
 total energy-change (2. order) :-0.8392180E+00  (-0.9341933E+01)
 number of electron     329.9999978 magnetization 
 augmentation part      120.3718722 magnetization 

 Broyden mixing:
  rms(total) = 0.24730E+01    rms(broyden)= 0.24729E+01
  rms(prec ) = 0.24765E+01
  weight for this iteration     100.00

 eigenvalues of (default mixing * dielectric matrix)
  average eigenvalue GAMMA=   1.3390
  1.3390

 Free energy of the ion-electron system (eV)
  ---------------------------------------------------
  alpha Z        PSCENC =        46.61463558
  Ewald energy   TEWEN  =     79152.25378591
  -Hartree energ DENC   =   -105495.01813023
  -exchange      EXHF   =         0.00000000
  -V(xc)+E(xc)   XCENC  =       436.47275998
  PAW double counting   =     27488.19804095   -26829.16505693
  entropy T*S    EENTRO =        -0.00000274
  eigenvalues    EBANDS =     -2659.04529515
  atomic energy  EATOM  =     27781.21916726
  Solvation  Ediel_sol  =         0.00000000
  ---------------------------------------------------
  free energy    TOTEN  =       -78.47009537 eV

  energy without entropy =      -78.47009264  energy(sigma->0) =      -78.47009401


--------------------------------------------------------------------------------------------------------




--------------------------------------- Iteration      1(   7)  ---------------------------------------


    POTLOK:  cpu time    3.8898: real time    5.1697
    SETDIJ:  cpu time    0.4351: real time    0.8858
     EDDAV:  cpu time   39.9230: real time   58.6198
       DOS:  cpu time    0.0071: real time    0.0071
    CHARGE:  cpu time    3.0881: real time    6.0308
    MIXING:  cpu time    0.0791: real time    0.1535
    --------------------------------------------
      LOOP:  cpu time   47.4222: real time   70.8666

 eigenvalue-minimisations  :   448
 total energy-change (2. order) : 0.1597049E+00  (-0.3013574E+00)
 number of electron     329.9999978 magnetization 
 augmentation part      120.3688494 magnetization 

 Broyden mixing:
  rms(total) = 0.10292E+01    rms(broyden)= 0.10292E+01
  rms(prec ) = 0.10309E+01
  weight for this iteration     100.00

 eigenvalues of (default mixing * dielectric matrix)
  average eigenvalue GAMMA=   1.5733
  0.9130  2.2336

 Free energy of the ion-electron system (eV)
  ---------------------------------------------------
  alpha Z        PSCENC =        46.61463558
  Ewald energy   TEWEN  =     79152.25378591
  -Hartree energ DENC   =   -105511.12260074
  -exchange      EXHF   =         0.00000000
  -V(xc)+E(xc)   XCENC  =       435.61428922
  PAW double counting   =     28678.98526569   -28037.12314693
  entropy T*S    EENTRO =        -0.00002435
  eigenvalues    EBANDS =     -2624.75176216
  atomic energy  EATOM  =     27781.21916726
  Solvation  Ediel_sol  =         0.00000000
  ---------------------------------------------------
  free energy    TOTEN  =       -78.31039051 eV

  energy without entropy =      -78.31036616  energy(sigma->0) =      -78.31037834


--------------------------------------------------------------------------------------------------------




--------------------------------------- Iteration      1(   8)  ---------------------------------------


    POTLOK:  cpu time    3.6052: real time    7.1298
    SETDIJ:  cpu time    0.9212: real time    0.9239
     EDDAV:  cpu time   36.6826: real time   51.2862
       DOS:  cpu time    0.0009: real time    0.0009
    CHARGE:  cpu time    5.1368: real time    6.7321
    MIXING:  cpu time    0.1981: real time    0.4072
    --------------------------------------------
      LOOP:  cpu time   46.5449: real time   66.4800

 eigenvalue-minimisations  :   448
 total energy-change (2. order) : 0.4152892E-01  (-0.4421979E-01)
 number of electron     329.9999978 magnetization 
 augmentation part      120.5125407 magnetization 

 Broyden mixing:
  rms(total) = 0.18812E+00    rms(broyden)= 0.18811E+00
  rms(prec ) = 0.18959E+00
  weight for this iteration     100.00

 eigenvalues of (default mixing * dielectric matrix)
  average eigenvalue GAMMA=   1.3967
  2.4047  0.9952  0.7903

 Free energy of the ion-electron system (eV)
  ---------------------------------------------------
  alpha Z        PSCENC =        46.61463558
  Ewald energy   TEWEN  =     79152.25378591
  -Hartree energ DENC   =   -105504.60832956
  -exchange      EXHF   =         0.00000000
  -V(xc)+E(xc)   XCENC  =       434.89835128
  PAW double counting   =     29690.20002232   -29061.09507606
  entropy T*S    EENTRO =        -0.00001503
  eigenvalues    EBANDS =     -2617.75140328
  atomic energy  EATOM  =     27781.21916726
  Solvation  Ediel_sol  =         0.00000000
  ---------------------------------------------------
  free energy    TOTEN  =       -78.26886159 eV

  energy without entropy =      -78.26884656  energy(sigma->0) =      -78.26885407


--------------------------------------------------------------------------------------------------------




--------------------------------------- Iteration      1(   9)  ---------------------------------------


    POTLOK:  cpu time    5.7269: real time    6.5307
    SETDIJ:  cpu time    0.8035: real time    0.8055
     EDDAV:  cpu time   35.9516: real time   52.2887
       DOS:  cpu time    0.0009: real time    0.0009
    CHARGE:  cpu time    3.1630: real time    5.4710
    MIXING:  cpu time    0.1064: real time    0.2109
    --------------------------------------------
      LOOP:  cpu time   45.7524: real time   65.3078

 eigenvalue-minimisations  :   476
 total energy-change (2. order) : 0.4563477E-02  (-0.4482068E-02)
 number of electron     329.9999978 magnetization 
 augmentation part      120.5196995 magnetization 

 Broyden mixing:
  rms(total) = 0.55762E-01    rms(broyden)= 0.55760E-01
  rms(prec ) = 0.56731E-01
  weight for this iteration     100.00

 eigenvalues of (default mixing * dielectric matrix)
  average eigenvalue GAMMA=   1.3595
  2.4505  1.1675  0.9100  0.9100

 Free energy of the ion-electron system (eV)
  ---------------------------------------------------
  alpha Z        PSCENC =        46.61463558
  Ewald energy   TEWEN  =     79152.25378591
  -Hartree energ DENC   =   -105507.08065791
  -exchange      EXHF   =         0.00000000
  -V(xc)+E(xc)   XCENC  =       434.91179946
  PAW double counting   =     29833.56364304   -29205.89789728
  entropy T*S    EENTRO =        -0.00001661
  eigenvalues    EBANDS =     -2613.84875755
  atomic energy  EATOM  =     27781.21916726
  Solvation  Ediel_sol  =         0.00000000
  ---------------------------------------------------
  free energy    TOTEN  =       -78.26429811 eV

  energy without entropy =      -78.26428150  energy(sigma->0) =      -78.26428981


--------------------------------------------------------------------------------------------------------




--------------------------------------- Iteration      1(  10)  ---------------------------------------


    POTLOK:  cpu time    4.8290: real time    7.1200
    SETDIJ:  cpu time    0.4531: real time    0.9166
     EDDAV:  cpu time   42.5551: real time   63.3639
       DOS:  cpu time    0.0009: real time    0.0009
    CHARGE:  cpu time    2.9117: real time    4.5940
    MIXING:  cpu time    0.3020: real time    0.3029
    --------------------------------------------
      LOOP:  cpu time   51.0519: real time   76.2984

 eigenvalue-minimisations  :   462
 total energy-change (2. order) : 0.6860961E-04  (-0.9804198E-03)
 number of electron     329.9999978 magnetization 
 augmentation part      120.5061642 magnetization 

 Broyden mixing:
  rms(total) = 0.20581E-01    rms(broyden)= 0.20581E-01
  rms(prec ) = 0.21620E-01
  weight for this iteration     100.00

 eigenvalues of (default mixing * dielectric matrix)
  average eigenvalue GAMMA=   1.3530
  2.4893  1.6312  1.0232  0.8301  0.7910

 Free energy of the ion-electron system (eV)
  ---------------------------------------------------
  alpha Z        PSCENC =        46.61463558
  Ewald energy   TEWEN  =     79152.25378591
  -Hartree energ DENC   =   -105511.19211967
  -exchange      EXHF   =         0.00000000
  -V(xc)+E(xc)   XCENC  =       434.98155787
  PAW double counting   =     29859.19539942   -29231.58710373
  entropy T*S    EENTRO =        -0.00001623
  eigenvalues    EBANDS =     -2609.74953590
  atomic energy  EATOM  =     27781.21916726
  Solvation  Ediel_sol  =         0.00000000
  ---------------------------------------------------
  free energy    TOTEN  =       -78.26422950 eV

  energy without entropy =      -78.26421327  energy(sigma->0) =      -78.26422139


--------------------------------------------------------------------------------------------------------




--------------------------------------- Iteration      1(  11)  ---------------------------------------


    POTLOK:  cpu time    4.5229: real time    7.1808
    SETDIJ:  cpu time    0.4014: real time    0.8149
     EDDAV:  cpu time   43.9151: real time   61.1936
       DOS:  cpu time    0.0010: real time    0.0010
    CHARGE:  cpu time    3.4898: real time    5.7530
    MIXING:  cpu time    0.3955: real time    0.3965
    --------------------------------------------
      LOOP:  cpu time   52.7255: real time   75.3396

 eigenvalue-minimisations  :   476
 total energy-change (2. order) :-0.8998263E-03  (-0.8116369E-04)
 number of electron     329.9999978 magnetization 
 augmentation part      120.5014410 magnetization 

 Broyden mixing:
  rms(total) = 0.10294E-01    rms(broyden)= 0.10294E-01
  rms(prec ) = 0.11521E-01
  weight for this iteration     100.00

 eigenvalues of (default mixing * dielectric matrix)
  average eigenvalue GAMMA=   1.4050
  2.5061  2.2082  1.1654  0.8429  0.8429  0.8642

 Free energy of the ion-electron system (eV)
  ---------------------------------------------------
  alpha Z        PSCENC =        46.61463558
  Ewald energy   TEWEN  =     79152.25378591
  -Hartree energ DENC   =   -105515.04030401
  -exchange      EXHF   =         0.00000000
  -V(xc)+E(xc)   XCENC  =       435.01422051
  PAW double counting   =     29866.32862535   -29238.65697104
  entropy T*S    EENTRO =        -0.00001573
  eigenvalues    EBANDS =     -2605.99827315
  atomic energy  EATOM  =     27781.21916726
  Solvation  Ediel_sol  =         0.00000000
  ---------------------------------------------------
  free energy    TOTEN  =       -78.26512933 eV

  energy without entropy =      -78.26511360  energy(sigma->0) =      -78.26512146


--------------------------------------------------------------------------------------------------------




--------------------------------------- Iteration      1(  12)  ---------------------------------------


    POTLOK:  cpu time    5.7104: real time    6.6643
    SETDIJ:  cpu time    0.3211: real time    0.6400
     EDDAV:  cpu time   38.6127: real time   56.4873
       DOS:  cpu time    0.0009: real time    0.0009
    CHARGE:  cpu time    4.1969: real time    4.3016
    MIXING:  cpu time    0.4290: real time    0.4302
    --------------------------------------------
      LOOP:  cpu time   49.2710: real time   68.5244

 eigenvalue-minimisations  :   434
 total energy-change (2. order) :-0.1097699E-02  (-0.2540344E-04)
 number of electron     329.9999978 magnetization 
 augmentation part      120.5007652 magnetization 

 Broyden mixing:
  rms(total) = 0.39276E-02    rms(broyden)= 0.39274E-02
  rms(prec ) = 0.53776E-02
  weight for this iteration     100.00

 eigenvalues of (default mixing * dielectric matrix)
  average eigenvalue GAMMA=   1.4043
  2.4974  2.4974  1.3281  0.9132  0.9132  0.9202  0.7607

 Free energy of the ion-electron system (eV)
  ---------------------------------------------------
  alpha Z        PSCENC =        46.61463558
  Ewald energy   TEWEN  =     79152.25378591
  -Hartree energ DENC   =   -105519.15693052
  -exchange      EXHF   =         0.00000000
  -V(xc)+E(xc)   XCENC  =       435.03662769
  PAW double counting   =     29864.57369064   -29236.81436010
  entropy T*S    EENTRO =        -0.00001581
  eigenvalues    EBANDS =     -2601.99282768
  atomic energy  EATOM  =     27781.21916726
  Solvation  Ediel_sol  =         0.00000000
  ---------------------------------------------------
  free energy    TOTEN  =       -78.26622703 eV

  energy without entropy =      -78.26621122  energy(sigma->0) =      -78.26621912


--------------------------------------------------------------------------------------------------------




--------------------------------------- Iteration      1(  13)  ---------------------------------------


    POTLOK:  cpu time    5.0941: real time    7.2830
    SETDIJ:  cpu time    0.4440: real time    0.8871
     EDDAV:  cpu time   39.3076: real time   59.1367
       DOS:  cpu time    0.0009: real time    0.0009
    CHARGE:  cpu time    2.9549: real time    5.9249
    MIXING:  cpu time    0.3522: real time    0.7170
    --------------------------------------------
      LOOP:  cpu time   48.1538: real time   73.9496

 eigenvalue-minimisations  :   420
 total energy-change (2. order) :-0.9218030E-03  (-0.8891854E-05)
 number of electron     329.9999978 magnetization 
 augmentation part      120.5012349 magnetization 

 Broyden mixing:
  rms(total) = 0.21755E-02    rms(broyden)= 0.21754E-02
  rms(prec ) = 0.35267E-02
  weight for this iteration     100.00

 eigenvalues of (default mixing * dielectric matrix)
  average eigenvalue GAMMA=   1.4431
  2.7304  2.4509  1.5625  1.3771  0.9347  0.8246  0.8246  0.8402

 Free energy of the ion-electron system (eV)
  ---------------------------------------------------
  alpha Z        PSCENC =        46.61463558
  Ewald energy   TEWEN  =     79152.25378591
  -Hartree energ DENC   =   -105521.76311699
  -exchange      EXHF   =         0.00000000
  -V(xc)+E(xc)   XCENC  =       435.04798775
  PAW double counting   =     29862.15733667   -29234.37361952
  entropy T*S    EENTRO =        -0.00001596
  eigenvalues    EBANDS =     -2599.42330952
  atomic energy  EATOM  =     27781.21916726
  Solvation  Ediel_sol  =         0.00000000
  ---------------------------------------------------
  free energy    TOTEN  =       -78.26714883 eV

  energy without entropy =      -78.26713287  energy(sigma->0) =      -78.26714085


--------------------------------------------------------------------------------------------------------




--------------------------------------- Iteration      1(  14)  ---------------------------------------


    POTLOK:  cpu time    4.9315: real time    6.6989
    SETDIJ:  cpu time    0.9485: real time    0.9638
     EDDAV:  cpu time   41.7663: real time   54.8659
       DOS:  cpu time    0.0010: real time    0.0010
    CHARGE:  cpu time    5.2619: real time    6.0706
    MIXING:  cpu time    0.4075: real time    0.4087
    --------------------------------------------
      LOOP:  cpu time   53.3167: real time   69.0088

 eigenvalue-minimisations  :   434
 total energy-change (2. order) :-0.1307115E-02  (-0.1207014E-04)
 number of electron     329.9999978 magnetization 
 augmentation part      120.5007841 magnetization 

 Broyden mixing:
  rms(total) = 0.12542E-02    rms(broyden)= 0.12541E-02
  rms(prec ) = 0.21588E-02
  weight for this iteration     100.00

 eigenvalues of (default mixing * dielectric matrix)
  average eigenvalue GAMMA=   1.5839
  3.6395  2.3664  2.3664  1.4188  1.0653  0.8809  0.8809  0.8185  0.8185

 Free energy of the ion-electron system (eV)
  ---------------------------------------------------
  alpha Z        PSCENC =        46.61463558
  Ewald energy   TEWEN  =     79152.25378591
  -Hartree energ DENC   =   -105525.02869687
  -exchange      EXHF   =         0.00000000
  -V(xc)+E(xc)   XCENC  =       435.06291682
  PAW double counting   =     29860.75435362   -29232.97839130
  entropy T*S    EENTRO =        -0.00001614
  eigenvalues    EBANDS =     -2596.16621083
  atomic energy  EATOM  =     27781.21916726
  Solvation  Ediel_sol  =         0.00000000
  ---------------------------------------------------
  free energy    TOTEN  =       -78.26845595 eV

  energy without entropy =      -78.26843981  energy(sigma->0) =      -78.26844788


--------------------------------------------------------------------------------------------------------




--------------------------------------- Iteration      1(  15)  ---------------------------------------


    POTLOK:  cpu time    6.4729: real time    6.9853
    SETDIJ:  cpu time    0.7478: real time    0.8467
     EDDAV:  cpu time   37.8367: real time   51.5436
       DOS:  cpu time    0.0008: real time    0.0008
    CHARGE:  cpu time    3.0588: real time    3.1371
    MIXING:  cpu time    0.2521: real time    0.2528
    --------------------------------------------
      LOOP:  cpu time   48.3691: real time   62.7665

 eigenvalue-minimisations  :   406
 total energy-change (2. order) :-0.1163796E-02  (-0.1195902E-04)
 number of electron     329.9999978 magnetization 
 augmentation part      120.5000594 magnetization 

 Broyden mixing:
  rms(total) = 0.89406E-03    rms(broyden)= 0.89402E-03
  rms(prec ) = 0.12718E-02
  weight for this iteration     100.00

 eigenvalues of (default mixing * dielectric matrix)
  average eigenvalue GAMMA=   1.6775
  4.6259  2.5148  2.3974  1.6218  1.2736  0.9299  0.9299  0.8589  0.8589  0.7639

 Free energy of the ion-electron system (eV)
  ---------------------------------------------------
  alpha Z        PSCENC =        46.61463558
  Ewald energy   TEWEN  =     79152.25378591
  -Hartree energ DENC   =   -105528.10523070
  -exchange      EXHF   =         0.00000000
  -V(xc)+E(xc)   XCENC  =       435.07578957
  PAW double counting   =     29859.33379183   -29231.56049023
  entropy T*S    EENTRO =        -0.00001622
  eigenvalues    EBANDS =     -2593.10105274
  atomic energy  EATOM  =     27781.21916726
  Solvation  Ediel_sol  =         0.00000000
  ---------------------------------------------------
  free energy    TOTEN  =       -78.26961974 eV

  energy without entropy =      -78.26960352  energy(sigma->0) =      -78.26961163


--------------------------------------------------------------------------------------------------------




--------------------------------------- Iteration      1(  16)  ---------------------------------------


    POTLOK:  cpu time    5.9633: real time    6.0796
    SETDIJ:  cpu time    0.8965: real time    0.9838
     EDDAV:  cpu time   35.0332: real time   51.7714
       DOS:  cpu time    0.0009: real time    0.0009
    CHARGE:  cpu time    3.7764: real time    4.4970
    MIXING:  cpu time    0.3913: real time    0.3925
    --------------------------------------------
      LOOP:  cpu time   46.0617: real time   63.7253

 eigenvalue-minimisations  :   350
 total energy-change (2. order) :-0.6845434E-03  (-0.4169337E-05)
 number of electron     329.9999978 magnetization 
 augmentation part      120.4997337 magnetization 

 Broyden mixing:
  rms(total) = 0.53000E-03    rms(broyden)= 0.52998E-03
  rms(prec ) = 0.74379E-03
  weight for this iteration     100.00

 eigenvalues of (default mixing * dielectric matrix)
  average eigenvalue GAMMA=   1.7360
  5.3822  2.5559  2.4689  2.0112  1.2986  1.0230  1.0230  0.8753  0.8753  0.7915
  0.7915

 Free energy of the ion-electron system (eV)
  ---------------------------------------------------
  alpha Z        PSCENC =        46.61463558
  Ewald energy   TEWEN  =     79152.25378591
  -Hartree energ DENC   =   -105529.60523351
  -exchange      EXHF   =         0.00000000
  -V(xc)+E(xc)   XCENC  =       435.08031489
  PAW double counting   =     29858.91589468   -29231.14350455
  entropy T*S    EENTRO =        -0.00001622
  eigenvalues    EBANDS =     -2591.60534832
  atomic energy  EATOM  =     27781.21916726
  Solvation  Ediel_sol  =         0.00000000
  ---------------------------------------------------
  free energy    TOTEN  =       -78.27030429 eV

  energy without entropy =      -78.27028806  energy(sigma->0) =      -78.27029617


--------------------------------------------------------------------------------------------------------




--------------------------------------- Iteration      1(  17)  ---------------------------------------


    POTLOK:  cpu time    3.5950: real time    6.9570
    SETDIJ:  cpu time    0.4335: real time    0.8636
     EDDAV:  cpu time   36.4649: real time   47.4209
       DOS:  cpu time    0.0010: real time    0.0010
    CHARGE:  cpu time    4.3672: real time    5.4561
    MIXING:  cpu time    0.3030: real time    0.3169
    --------------------------------------------
      LOOP:  cpu time   45.1645: real time   61.0155

 eigenvalue-minimisations  :   336
 total energy-change (2. order) :-0.4599937E-03  (-0.1471612E-05)
 number of electron     329.9999978 magnetization 
 augmentation part      120.4996734 magnetization 

 Broyden mixing:
  rms(total) = 0.29239E-03    rms(broyden)= 0.29238E-03
  rms(prec ) = 0.43345E-03
  weight for this iteration     100.00

 eigenvalues of (default mixing * dielectric matrix)
  average eigenvalue GAMMA=   1.8561
  6.5683  2.8988  2.4633  2.2991  1.6180  1.2081  0.9695  0.9695  0.8409  0.8409
  0.8460  0.7512

 Free energy of the ion-electron system (eV)
  ---------------------------------------------------
  alpha Z        PSCENC =        46.61463558
  Ewald energy   TEWEN  =     79152.25378591
  -Hartree energ DENC   =   -105530.30728668
  -exchange      EXHF   =         0.00000000
  -V(xc)+E(xc)   XCENC  =       435.08126131
  PAW double counting   =     29859.06413090   -29231.29356718
  entropy T*S    EENTRO =        -0.00001622
  eigenvalues    EBANDS =     -2590.90287515
  atomic energy  EATOM  =     27781.21916726
  Solvation  Ediel_sol  =         0.00000000
  ---------------------------------------------------
  free energy    TOTEN  =       -78.27076428 eV

  energy without entropy =      -78.27074806  energy(sigma->0) =      -78.27075617


--------------------------------------------------------------------------------------------------------




--------------------------------------- Iteration      1(  18)  ---------------------------------------


    POTLOK:  cpu time    6.7018: real time    6.9105
    SETDIJ:  cpu time    0.9008: real time    0.9325
     EDDAV:  cpu time   30.3391: real time   47.7008
       DOS:  cpu time    0.0044: real time    0.0044
    CHARGE:  cpu time    4.2618: real time    5.2515
    MIXING:  cpu time    0.3999: real time    0.5702
    --------------------------------------------
      LOOP:  cpu time   42.6079: real time   61.3698

 eigenvalue-minimisations  :   308
 total energy-change (2. order) :-0.3016263E-03  (-0.9254938E-06)
 number of electron     329.9999978 magnetization 
 augmentation part      120.4997087 magnetization 

 Broyden mixing:
  rms(total) = 0.19804E-03    rms(broyden)= 0.19803E-03
  rms(prec ) = 0.27319E-03
  weight for this iteration     100.00

 eigenvalues of (default mixing * dielectric matrix)
  average eigenvalue GAMMA=   1.8958
  7.0719  3.2675  2.4705  2.4705  1.7456  1.2690  1.1770  1.0052  0.8958  0.8958
  0.8165  0.8165  0.7430

 Free energy of the ion-electron system (eV)
  ---------------------------------------------------
  alpha Z        PSCENC =        46.61463558
  Ewald energy   TEWEN  =     79152.25378591
  -Hartree energ DENC   =   -105530.72664709
  -exchange      EXHF   =         0.00000000
  -V(xc)+E(xc)   XCENC  =       435.08131657
  PAW double counting   =     29859.07121572   -29231.30037691
  entropy T*S    EENTRO =        -0.00001622
  eigenvalues    EBANDS =     -2590.48414672
  atomic energy  EATOM  =     27781.21916726
  Solvation  Ediel_sol  =         0.00000000
  ---------------------------------------------------
  free energy    TOTEN  =       -78.27106591 eV

  energy without entropy =      -78.27104968  energy(sigma->0) =      -78.27105779


--------------------------------------------------------------------------------------------------------




--------------------------------------- Iteration      1(  19)  ---------------------------------------


    POTLOK:  cpu time    4.1296: real time    5.8594
    SETDIJ:  cpu time    0.3519: real time    0.4167
     EDDAV:  cpu time   31.0926: real time   41.1656
       DOS:  cpu time    0.0010: real time    0.0010
    CHARGE:  cpu time    2.7360: real time    4.6690
    MIXING:  cpu time    0.1425: real time    0.2861
    --------------------------------------------
      LOOP:  cpu time   38.4537: real time   52.3977

 eigenvalue-minimisations  :   308
 total energy-change (2. order) :-0.1724963E-03  (-0.4583936E-06)
 number of electron     329.9999978 magnetization 
 augmentation part      120.4996264 magnetization 

 Broyden mixing:
  rms(total) = 0.11113E-03    rms(broyden)= 0.11112E-03
  rms(prec ) = 0.16031E-03
  weight for this iteration     100.00

 eigenvalues of (default mixing * dielectric matrix)
  average eigenvalue GAMMA=   1.9958
  7.5898  4.2076  2.5423  2.5423  2.1829  1.5679  1.2349  0.9892  0.9892  0.8710
  0.8710  0.8057  0.8057  0.7423

 Free energy of the ion-electron system (eV)
  ---------------------------------------------------
  alpha Z        PSCENC =        46.61463558
  Ewald energy   TEWEN  =     79152.25378591
  -Hartree energ DENC   =   -105530.88337271
  -exchange      EXHF   =         0.00000000
  -V(xc)+E(xc)   XCENC  =       435.08118252
  PAW double counting   =     29859.03566779   -29231.26379418
  entropy T*S    EENTRO =        -0.00001623
  eigenvalues    EBANDS =     -2590.32849434
  atomic energy  EATOM  =     27781.21916726
  Solvation  Ediel_sol  =         0.00000000
  ---------------------------------------------------
  free energy    TOTEN  =       -78.27123840 eV

  energy without entropy =      -78.27122218  energy(sigma->0) =      -78.27123029


--------------------------------------------------------------------------------------------------------




--------------------------------------- Iteration      1(  20)  ---------------------------------------


    POTLOK:  cpu time    4.3289: real time    6.8248
    SETDIJ:  cpu time    0.7375: real time    0.8175
     EDDAV:  cpu time   31.1064: real time   41.6192
       DOS:  cpu time    0.0007: real time    0.0007
    CHARGE:  cpu time    5.3171: real time    5.4313
    MIXING:  cpu time    0.6091: real time    0.7910
    --------------------------------------------
      LOOP:  cpu time   42.0997: real time   55.4844

 eigenvalue-minimisations  :   294
 total energy-change (2. order) :-0.1119071E-03  (-0.5104497E-06)
 number of electron     329.9999978 magnetization 
 augmentation part      120.4996648 magnetization 

 Broyden mixing:
  rms(total) = 0.56139E-04    rms(broyden)= 0.56136E-04
  rms(prec ) = 0.81137E-04
  weight for this iteration     100.00

 eigenvalues of (default mixing * dielectric matrix)
  average eigenvalue GAMMA=   2.0105
  7.8717  4.8198  2.8048  2.3774  2.3774  1.6482  1.2807  0.9872  0.9872  0.8817
  0.8817  0.7608  0.8228  0.8228  0.8330

 Free energy of the ion-electron system (eV)
  ---------------------------------------------------
  alpha Z        PSCENC =        46.61463558
  Ewald energy   TEWEN  =     79152.25378591
  -Hartree energ DENC   =   -105530.96859078
  -exchange      EXHF   =         0.00000000
  -V(xc)+E(xc)   XCENC  =       435.08079248
  PAW double counting   =     29858.99599616   -29231.22397529
  entropy T*S    EENTRO =        -0.00001623
  eigenvalues    EBANDS =     -2590.24314540
  atomic energy  EATOM  =     27781.21916726
  Solvation  Ediel_sol  =         0.00000000
  ---------------------------------------------------
  free energy    TOTEN  =       -78.27135031 eV

  energy without entropy =      -78.27133408  energy(sigma->0) =      -78.27134220


--------------------------------------------------------------------------------------------------------




--------------------------------------- Iteration      1(  21)  ---------------------------------------


    POTLOK:  cpu time    4.3580: real time    6.4626
    SETDIJ:  cpu time    0.7462: real time    0.9691
     EDDAV:  cpu time   29.5542: real time   42.3686
       DOS:  cpu time    0.0009: real time    0.0011
    CHARGE:  cpu time    3.0436: real time    3.7952
    MIXING:  cpu time    0.4586: real time    0.4601
    --------------------------------------------
      LOOP:  cpu time   38.1615: real time   54.0568

 eigenvalue-minimisations  :   308
 total energy-change (2. order) :-0.4145109E-04  (-0.1491865E-06)
 number of electron     329.9999978 magnetization 
 augmentation part      120.4996870 magnetization 

 Broyden mixing:
  rms(total) = 0.39041E-04    rms(broyden)= 0.39039E-04
  rms(prec ) = 0.55066E-04
  weight for this iteration     100.00

 eigenvalues of (default mixing * dielectric matrix)
  average eigenvalue GAMMA=   2.0660
  8.1656  5.3579  2.9403  2.4530  2.4530  2.0600  1.4834  1.2264  0.9958  0.9958
  0.8814  0.8814  0.8241  0.8241  0.7566  0.7566

 Free energy of the ion-electron system (eV)
  ---------------------------------------------------
  alpha Z        PSCENC =        46.61463558
  Ewald energy   TEWEN  =     79152.25378591
  -Hartree energ DENC   =   -105530.98748235
  -exchange      EXHF   =         0.00000000
  -V(xc)+E(xc)   XCENC  =       435.08061156
  PAW double counting   =     29859.00540563   -29231.23358007
  entropy T*S    EENTRO =        -0.00001623
  eigenvalues    EBANDS =     -2590.22391904
  atomic energy  EATOM  =     27781.21916726
  Solvation  Ediel_sol  =         0.00000000
  ---------------------------------------------------
  free energy    TOTEN  =       -78.27139176 eV

  energy without entropy =      -78.27137553  energy(sigma->0) =      -78.27138365


--------------------------------------------------------------------------------------------------------




--------------------------------------- Iteration      1(  22)  ---------------------------------------


    POTLOK:  cpu time    6.4217: real time    6.6191
    SETDIJ:  cpu time    0.9551: real time    0.9574
     EDDAV:  cpu time   27.5683: real time   45.1136
       DOS:  cpu time    0.0058: real time    0.0058
    CHARGE:  cpu time    4.8853: real time    5.4830
    MIXING:  cpu time    0.4546: real time    0.4558
    --------------------------------------------
      LOOP:  cpu time   40.2908: real time   58.6347

 eigenvalue-minimisations  :   280
 total energy-change (2. order) :-0.3330260E-04  (-0.1243628E-06)
 number of electron     329.9999978 magnetization 
 augmentation part      120.4997304 magnetization 

 Broyden mixing:
  rms(total) = 0.24202E-04    rms(broyden)= 0.24201E-04
  rms(prec ) = 0.32685E-04
  weight for this iteration     100.00

 eigenvalues of (default mixing * dielectric matrix)
  average eigenvalue GAMMA=   2.0805
  8.3175  5.7348  3.1189  2.5410  2.5410  2.1677  1.6574  1.1977  1.1166  1.1166
  0.9135  0.9135  0.8320  0.8320  0.8507  0.7587  0.7587

 Free energy of the ion-electron system (eV)
  ---------------------------------------------------
  alpha Z        PSCENC =        46.61463558
  Ewald energy   TEWEN  =     79152.25378591
  -Hartree energ DENC   =   -105530.99620079
  -exchange      EXHF   =         0.00000000
  -V(xc)+E(xc)   XCENC  =       435.08043363
  PAW double counting   =     29858.98181880   -29231.20984362
  entropy T*S    EENTRO =        -0.00001623
  eigenvalues    EBANDS =     -2590.21520559
  atomic energy  EATOM  =     27781.21916726
  Solvation  Ediel_sol  =         0.00000000
  ---------------------------------------------------
  free energy    TOTEN  =       -78.27142506 eV

  energy without entropy =      -78.27140884  energy(sigma->0) =      -78.27141695


--------------------------------------------------------------------------------------------------------




--------------------------------------- Iteration      1(  23)  ---------------------------------------


    POTLOK:  cpu time    4.6662: real time    7.7007
    SETDIJ:  cpu time    0.3214: real time    0.6345
     EDDAV:  cpu time   30.5972: real time   40.3141
       DOS:  cpu time    0.1705: real time    0.3400
    CHARGE:  cpu time    2.5432: real time    5.0961
    MIXING:  cpu time    0.1281: real time    0.2585
    --------------------------------------------
      LOOP:  cpu time   38.4265: real time   54.3439

 eigenvalue-minimisations  :   280
 total energy-change (2. order) :-0.1264418E-04  (-0.3903700E-07)
 number of electron     329.9999978 magnetization 
 augmentation part      120.4997195 magnetization 

 Broyden mixing:
  rms(total) = 0.15440E-04    rms(broyden)= 0.15440E-04
  rms(prec ) = 0.20991E-04
  weight for this iteration     100.00

 eigenvalues of (default mixing * dielectric matrix)
  average eigenvalue GAMMA=   2.0967
  8.5338  6.1404  3.5752  2.6260  2.3695  2.3695  1.8020  1.4221  1.2302  0.9821
  0.9821  0.8896  0.8896  0.8269  0.8269  0.7399  0.7676  0.7676

 Free energy of the ion-electron system (eV)
  ---------------------------------------------------
  alpha Z        PSCENC =        46.61463558
  Ewald energy   TEWEN  =     79152.25378591
  -Hartree energ DENC   =   -105531.00134214
  -exchange      EXHF   =         0.00000000
  -V(xc)+E(xc)   XCENC  =       435.08039678
  PAW double counting   =     29858.98341233   -29231.21136442
  entropy T*S    EENTRO =        -0.00001623
  eigenvalues    EBANDS =     -2590.21011277
  atomic energy  EATOM  =     27781.21916726
  Solvation  Ediel_sol  =         0.00000000
  ---------------------------------------------------
  free energy    TOTEN  =       -78.27143771 eV

  energy without entropy =      -78.27142148  energy(sigma->0) =      -78.27142959


--------------------------------------------------------------------------------------------------------




--------------------------------------- Iteration      1(  24)  ---------------------------------------


    POTLOK:  cpu time    3.2195: real time    6.4678
    SETDIJ:  cpu time    0.4251: real time    0.8578
     EDDAV:  cpu time   21.5301: real time   43.2912
       DOS:  cpu time    0.0097: real time    0.0227
    --------------------------------------------
      LOOP:  cpu time   25.1843: real time   50.6395

 eigenvalue-minimisations  :   266
 total energy-change (2. order) :-0.6505252E-05  (-0.2432401E-07)
 number of electron     329.9999978 magnetization 
 augmentation part      120.4997195 magnetization 

 Free energy of the ion-electron system (eV)
  ---------------------------------------------------
  alpha Z        PSCENC =        46.61463558
  Ewald energy   TEWEN  =     79152.25378591
  -Hartree energ DENC   =   -105531.00565001
  -exchange      EXHF   =         0.00000000
  -V(xc)+E(xc)   XCENC  =       435.08038104
  PAW double counting   =     29858.97559648   -29231.20338615
  entropy T*S    EENTRO =        -0.00001623
  eigenvalues    EBANDS =     -2590.20595810
  atomic energy  EATOM  =     27781.21916726
  Solvation  Ediel_sol  =         0.00000000
  ---------------------------------------------------
  free energy    TOTEN  =       -78.27144421 eV

  energy without entropy =      -78.27142798  energy(sigma->0) =      -78.27143610


--------------------------------------------------------------------------------------------------------




 average (electrostatic) potential at core
  the test charge radii are     1.2098
  (the norm of the test charge is              1.0000)
       1 -77.3099       2 -77.3403       3 -77.2269       4 -77.3038       5 -77.4606
       6 -77.3667       7 -77.4056       8 -77.3110       9 -77.3098      10 -77.3926
      11 -77.2269      12 -77.3667      13 -77.3696      14 -77.2961      15 -77.3787
      16 -77.4832      17 -77.4605      18 -77.3695      19 -77.3332      20 -77.4056
      21 -77.2652      22 -77.3925      23 -77.4342      24 -77.2960      25 -77.2651
      26 -77.3330      27 -77.2745      28 -77.2746      29 -77.3989      30 -77.2851
 
 
 
 E-fermi :  -5.1052     XC(G=0):  -0.5035     alpha+bet : -0.3168


 k-point     1 :       0.0000    0.0000    0.0000
  band No.  band energies     occupation 
      1     -11.4278      2.00000
      2     -10.9658      2.00000
      3     -10.8832      2.00000
      4     -10.8230      2.00000
      5     -10.2969      2.00000
      6     -10.2476      2.00000
      7     -10.1894      2.00000
      8     -10.1827      2.00000
      9     -10.1710      2.00000
     10     -10.1275      2.00000
     11     -10.0482      2.00000
     12     -10.0407      2.00000
     13     -10.0314      2.00000
     14     -10.0146      2.00000
     15      -9.9391      2.00000
     16      -9.9328      2.00000
     17      -9.9150      2.00000
     18      -9.8518      2.00000
     19      -9.7656      2.00000
     20      -9.7020      2.00000
     21      -9.6713      2.00000
     22      -9.5783      2.00000
     23      -9.5346      2.00000
     24      -9.5317      2.00000
     25      -9.4881      2.00000
     26      -9.4554      2.00000
     27      -9.4384      2.00000
     28      -9.4054      2.00000
     29      -9.2604      2.00000
     30      -9.2541      2.00000
     31      -9.2213      2.00000
     32      -9.1874      2.00000
     33      -9.1838      2.00000
     34      -9.1604      2.00000
     35      -9.1309      2.00000
     36      -9.0971      2.00000
     37      -9.0742      2.00000
     38      -9.0584      2.00000
     39      -9.0518      2.00000
     40      -9.0116      2.00000
     41      -8.9862      2.00000
     42      -8.9604      2.00000
     43      -8.9574      2.00000
     44      -8.9403      2.00000
     45      -8.8868      2.00000
     46      -8.8862      2.00000
     47      -8.8585      2.00000
     48      -8.8469      2.00000
     49      -8.8189      2.00000
     50      -8.7713      2.00000
     51      -8.7457      2.00000
     52      -8.7371      2.00000
     53      -8.7304      2.00000
     54      -8.6398      2.00000
     55      -8.6377      2.00000
     56      -8.6333      2.00000
     57      -8.5434      2.00000
     58      -8.4858      2.00000
     59      -8.4642      2.00000
     60      -8.4330      2.00000
     61      -8.4143      2.00000
     62      -8.3418      2.00000
     63      -8.3321      2.00000
     64      -8.3039      2.00000
     65      -8.2359      2.00000
     66      -8.1997      2.00000
     67      -8.1338      2.00000
     68      -8.1224      2.00000
     69      -8.0684      2.00000
     70      -8.0417      2.00000
     71      -8.0207      2.00000
     72      -7.9990      2.00000
     73      -7.9696      2.00000
     74      -7.9563      2.00000
     75      -7.8976      2.00000
     76      -7.8819      2.00000
     77      -7.8173      2.00000
     78      -7.7917      2.00000
     79      -7.7452      2.00000
     80      -7.7059      2.00000
     81      -7.6207      2.00000
     82      -7.6105      2.00000
     83      -7.5749      2.00000
     84      -7.5620      2.00000
     85      -7.5438      2.00000
     86      -7.5259      2.00000
     87      -7.5054      2.00000
     88      -7.4942      2.00000
     89      -7.4764      2.00000
     90      -7.4639      2.00000
     91      -7.4046      2.00000
     92      -7.3362      2.00000
     93      -7.3027      2.00000
     94      -7.2868      2.00000
     95      -7.2410      2.00000
     96      -7.2144      2.00000
     97      -7.2021      2.00000
     98      -7.1711      2.00000
     99      -7.1595      2.00000
    100      -7.1444      2.00000
    101      -7.1194      2.00000
    102      -7.0867      2.00000
    103      -7.0573      2.00000
    104      -7.0205      2.00000
    105      -6.9857      2.00000
    106      -6.9821      2.00000
    107      -6.9646      2.00000
    108      -6.9435      2.00000
    109      -6.9340      2.00000
    110      -6.9110      2.00000
    111      -6.9006      2.00000
    112      -6.8805      2.00000
    113      -6.8752      2.00000
    114      -6.8743      2.00000
    115      -6.8714      2.00000
    116      -6.8234      2.00000
    117      -6.8099      2.00000
    118      -6.8054      2.00000
    119      -6.7983      2.00000
    120      -6.7466      2.00000
    121      -6.7444      2.00000
    122      -6.7402      2.00000
    123      -6.7319      2.00000
    124      -6.7172      2.00000
    125      -6.6888      2.00000
    126      -6.6741      2.00000
    127      -6.6554      2.00000
    128      -6.6489      2.00000
    129      -6.6451      2.00000
    130      -6.6355      2.00000
    131      -6.6128      2.00000
    132      -6.6091      2.00000
    133      -6.5913      2.00000
    134      -6.5692      2.00000
    135      -6.5460      2.00000
    136      -6.5250      2.00000
    137      -6.5043      2.00000
    138      -6.4943      2.00000
    139      -6.4874      2.00000
    140      -6.4602      2.00000
    141      -6.4559      2.00000
    142      -6.4488      2.00000
    143      -6.4291      2.00000
    144      -6.4243      2.00000
    145      -6.4120      2.00000
    146      -6.3737      2.00000
    147      -6.3232      2.00000
    148      -6.3181      2.00000
    149      -6.2931      2.00000
    150      -6.2472      2.00000
    151      -6.2023      2.00000
    152      -6.1640      2.00000
    153      -6.0830      2.00000
    154      -6.0438      2.00000
    155      -5.9927      2.00000
    156      -5.9896      2.00000
    157      -5.9306      2.00000
    158      -5.8640      2.00000
    159      -5.8606      2.00000
    160      -5.7478      2.00000
    161      -5.4820      2.00000
    162      -5.3728      2.00000
    163      -5.3290      2.00000
    164      -5.2599      1.99999
    165      -5.2502      1.99996
    166      -4.9623      0.00005
    167      -4.0807      0.00000
    168      -3.8743      0.00000
    169      -3.8194      0.00000
    170      -3.6532      0.00000
    171      -3.4464      0.00000
    172      -3.3485      0.00000
    173      -3.2752      0.00000
    174      -3.1788      0.00000
    175      -3.1471      0.00000
    176      -3.0010      0.00000
    177      -2.6565      0.00000
    178      -2.2547      0.00000
    179      -2.1346      0.00000
    180      -2.0425      0.00000
    181      -1.8966      0.00000
[...]
     75      -7.8962      2.00000
     76      -7.8917      2.00000
     77      -7.8215      2.00000
     78      -7.8004      2.00000
     79      -7.7217      2.00000
     80      -7.7011      2.00000
     81      -7.6444      2.00000
     82      -7.6367      2.00000
     83      -7.6319      2.00000
     84      -7.5665      2.00000
     85      -7.5460      2.00000
     86      -7.5214      2.00000
     87      -7.5124      2.00000
     88      -7.4906      2.00000
     89      -7.4810      2.00000
     90      -7.4381      2.00000
     91      -7.4294      2.00000
     92      -7.3800      2.00000
     93      -7.3091      2.00000
     94      -7.2831      2.00000
     95      -7.2750      2.00000
     96      -7.2426      2.00000
     97      -7.1854      2.00000
     98      -7.1605      2.00000
     99      -7.1541      2.00000
    100      -7.1400      2.00000
    101      -7.0990      2.00000
    102      -7.0753      2.00000
    103      -7.0736      2.00000
    104      -7.0524      2.00000
    105      -7.0115      2.00000
    106      -6.9695      2.00000
    107      -6.9642      2.00000
    108      -6.9422      2.00000
    109      -6.9359      2.00000
    110      -6.9185      2.00000
    111      -6.9100      2.00000
    112      -6.9000      2.00000
    113      -6.8843      2.00000
    114      -6.8593      2.00000
    115      -6.8494      2.00000
    116      -6.8204      2.00000
    117      -6.8074      2.00000
    118      -6.7848      2.00000
    119      -6.7651      2.00000
    120      -6.7618      2.00000
    121      -6.7310      2.00000
    122      -6.7295      2.00000
    123      -6.7139      2.00000
    124      -6.6860      2.00000
    125      -6.6807      2.00000
    126      -6.6498      2.00000
    127      -6.6458      2.00000
    128      -6.6388      2.00000
    129      -6.6307      2.00000
    130      -6.6293      2.00000
    131      -6.6058      2.00000
    132      -6.5993      2.00000
    133      -6.5762      2.00000
    134      -6.5532      2.00000
    135      -6.5500      2.00000
    136      -6.5121      2.00000
    137      -6.4849      2.00000
    138      -6.4823      2.00000
    139      -6.4671      2.00000
    140      -6.4624      2.00000
    141      -6.4360      2.00000
    142      -6.4214      2.00000
    143      -6.4001      2.00000
    144      -6.3890      2.00000
    145      -6.3730      2.00000
    146      -6.3521      2.00000
    147      -6.3067      2.00000
    148      -6.2958      2.00000
    149      -6.2634      2.00000
    150      -6.2366      2.00000
    151      -6.1967      2.00000
    152      -6.1390      2.00000
    153      -6.0851      2.00000
    154      -5.9935      2.00000
    155      -5.9814      2.00000
    156      -5.9568      2.00000
    157      -5.9232      2.00000
    158      -5.8542      2.00000
    159      -5.8475      2.00000
    160      -5.7213      2.00000
    161      -5.4679      2.00000
    162      -5.3414      2.00000
    163      -5.3095      2.00000
    164      -5.2709      2.00000
    165      -5.2549      2.00000
    166      -4.7746      0.00000
    167      -4.0984      0.00000
    168      -3.8871      0.00000
    169      -3.7956      0.00000
    170      -3.6688      0.00000
    171      -3.4501      0.00000
    172      -3.3941      0.00000
    173      -3.2076      0.00000
    174      -3.2032      0.00000
    175      -3.0644      0.00000
    176      -2.9691      0.00000
    177      -2.6581      0.00000
    178      -2.3106      0.00000
    179      -2.0985      0.00000
    180      -1.9578      0.00000
    181      -1.8885      0.00000
    182      -1.7977      0.00000
    183      -1.7516      0.00000
    184      -1.5731      0.00000
    185      -1.2454      0.00000
    186      -1.2447      0.00000
    187      -1.1782      0.00000
    188      -1.0115      0.00000
    189      -0.9471      0.00000
    190      -0.8863      0.00000
    191      -0.7370      0.00000
    192      -0.6767      0.00000
    193      -0.5577      0.00000
    194      -0.4346      0.00000
    195      -0.1570      0.00000
    196      -0.1056      0.00000
    197      -0.0764      0.00000
    198       0.0157      0.00000
    199       0.1700      0.00000
    200       0.2340      0.00000
    201       0.2573      0.00000
    202       0.2866      0.00000
    203       0.3955      0.00000


--------------------------------------------------------------------------------------------------------


 soft charge-density along one line, spin component           1
         0         1         2         3         4         5         6         7         8         9
 total charge-density along one line
 
 pseudopotential strength for first ion, spin component:           1
 -9.493   0.016  -0.000   0.008  -0.002  -9.608   0.016  -0.000
  0.016  -9.423   0.007   0.004  -0.019   0.016  -9.540   0.007
 -0.000   0.007  -9.404   0.006   0.002  -0.000   0.007  -9.521
  0.008   0.004   0.006  -9.419   0.015   0.007   0.003   0.006
 -0.002  -0.019   0.002   0.015  -9.487  -0.002  -0.018   0.002
 -9.608   0.016  -0.000   0.007  -0.002  -9.707   0.015  -0.000
  0.016  -9.540   0.007   0.003  -0.018   0.015  -9.641   0.007
 -0.000   0.007  -9.521   0.006   0.002  -0.000   0.007  -9.623
  0.007   0.003   0.006  -9.535   0.015   0.007   0.003   0.006
 -0.002  -0.018   0.002   0.015  -9.602  -0.002  -0.018   0.002
  0.001  -0.010  -0.033  -0.012  -0.000   0.001  -0.010  -0.033
  0.001  -0.015  -0.048  -0.017  -0.000   0.001  -0.015  -0.048
  0.003   0.006   0.000   0.000   0.001   0.003   0.006   0.001
  0.000   0.001   0.010   0.005  -0.000   0.000   0.000   0.010
  0.001   0.000  -0.001   0.006   0.004   0.001   0.000  -0.001
  0.004   0.006   0.001   0.000   0.002   0.003   0.005   0.001
  0.000   0.001   0.011   0.005  -0.000   0.000   0.001   0.010
  0.001   0.000  -0.001   0.006   0.004   0.001   0.000  -0.001
 total augmentation occupancy for first ion, spin component:           1
  4.127   0.002   0.002  -0.254  -0.045  -2.303   0.081   0.019   0.199   0.001  -0.016  -0.026   0.096  -0.022  -0.084  -0.000
  0.002   3.825  -0.112   0.017  -0.181   0.080  -1.672   0.124   0.025   0.033   0.352  -0.074   0.279  -0.051   0.002  -0.003
  0.002  -0.112   3.596  -0.074  -0.010   0.019   0.124  -1.430   0.055   0.044   1.190  -0.215  -0.078   0.037  -0.101   0.003
 -0.254   0.017  -0.074   3.809  -0.082   0.204   0.025   0.054  -1.580   0.143   0.408  -0.084  -0.007  -0.040   0.257   0.000
 -0.045  -0.181  -0.010  -0.082   4.259   0.001   0.029   0.046   0.144  -2.330  -0.007   0.004  -0.178  -0.009   0.076   0.005
 -2.303   0.080   0.019   0.204   0.001   2.365  -0.142  -0.035  -0.162   0.035   0.007   0.020  -0.089   0.017   0.083   0.003
  0.081  -1.672   0.124   0.025   0.029  -0.142   1.482  -0.132  -0.056   0.082  -0.311   0.073  -0.275   0.054  -0.000   0.010
  0.019   0.124  -1.430   0.054   0.046  -0.035  -0.132   1.235  -0.038  -0.072  -1.078   0.235   0.075  -0.047   0.098  -0.003
  0.199   0.025   0.055  -1.580   0.144  -0.162  -0.056  -0.038   1.334  -0.190  -0.363   0.085   0.006   0.037  -0.252  -0.000
  0.001   0.033   0.044   0.143  -2.330   0.035   0.082  -0.072  -0.190   2.311   0.009  -0.004   0.166   0.010  -0.070  -0.005
 -0.016   0.352   1.190   0.408  -0.007   0.007  -0.311  -1.078  -0.363   0.009   2.362  -0.497  -0.006  -0.135  -0.036   0.000
 -0.026  -0.074  -0.215  -0.084   0.004   0.020   0.073   0.235   0.085  -0.004  -0.497   0.146   0.006   0.052   0.011  -0.000
  0.096   0.279  -0.078  -0.007  -0.178  -0.089  -0.275   0.075   0.006   0.166  -0.006   0.006   0.159  -0.016   0.002  -0.005
 -0.022  -0.051   0.037  -0.040  -0.009   0.017   0.054  -0.047   0.037   0.010  -0.135   0.052  -0.016   0.053  -0.022   0.001
 -0.084   0.002  -0.101   0.257   0.076   0.083  -0.000   0.098  -0.252  -0.070  -0.036   0.011   0.002  -0.022   0.159  -0.000
 -0.000  -0.003   0.003   0.000   0.005   0.003   0.010  -0.003  -0.000  -0.005   0.000  -0.000  -0.005   0.001  -0.000   0.000
  0.000   0.002   0.009   0.006   0.000  -0.000  -0.002  -0.001  -0.002  -0.000   0.010  -0.002   0.001  -0.002   0.001  -0.000
  0.002  -0.000   0.003  -0.002   0.001  -0.002  -0.000  -0.004   0.008   0.002   0.003  -0.001  -0.000   0.001  -0.005   0.000


------------------------ aborting loop because EDIFF is reached ----------------------------------------


    CHARGE:  cpu time    5.0146: real time    6.2185
    FORLOC:  cpu time    1.4377: real time    1.4552
    FORNL :  cpu time    6.7234: real time   13.3944
    STRESS:  cpu time   20.2900: real time   37.1559
    FORCOR:  cpu time    4.1062: real time    8.2455
    FORHAR:  cpu time    1.5165: real time    3.0448
    MIXING:  cpu time    0.1167: real time    0.2331
    OFIELD:  cpu time    0.0000: real time    0.0000

  FORCE on cell =-STRESS in cart. coord.  units (eV):
  Direction    XX          YY          ZZ          XY          YZ          ZX
  --------------------------------------------------------------------------------------
  Alpha Z    46.61464    46.61464    46.61464
  Ewald   26616.41491 25213.64225 27699.62483  -537.81054  -153.70326 -3464.87689
  Hartree 35235.77483 34281.75899 36393.31246  -480.37585  -130.31793 -3072.76038
  E(xc)   -1481.76802 -1482.97601 -1481.94641    -0.13413    -0.06536    -1.04744
  Local  -67001.23954-64659.55553-69249.75468  1013.56030   283.21887  6528.51951
  n-local   -41.48701   -37.90768   -38.60836     1.96427     0.53765     1.15845
  augment  2017.83659  2021.35618  2019.53823     0.90205     0.06616     2.29604
  Kinetic  4605.17205  4614.46750  4608.63140     1.88156     0.24509     6.78033
  Fock        0.00000     0.00000     0.00000     0.00000     0.00000     0.00000
  -------------------------------------------------------------------------------------
  Total      -2.68154    -2.59967    -2.58788    -0.01232    -0.01878     0.06962
  in kB      -0.19104    -0.18521    -0.18437    -0.00088    -0.00134     0.00496
  external pressure =       -0.19 kB  Pullay stress =        0.00 kB


 VOLUME and BASIS-vectors are now :
 -----------------------------------------------------------------------------
  energy-cutoff  :      298.93
  volume of cell :    22489.00
      direct lattice vectors                 reciprocal lattice vectors
    28.969268345  0.000000000  0.000000000     0.034519339  0.000000000  0.000000000
     0.000000000 27.606909616  0.000000000     0.000000000  0.036222816  0.000000000
     0.000000000  0.000000000 28.119965610     0.000000000  0.000000000  0.035561921

  length of vectors
    28.969268345 27.606909616 28.119965610     0.034519339  0.036222816  0.035561921


 FORCES acting on ions
    electron-ion (+dipol)            ewald-force                    non-local-force                 convergence-correction
 -----------------------------------------------------------------------------------------------
   -.225E+03 -.168E+03 -.118E+04   0.225E+03 0.169E+03 0.118E+04   0.117E+00 -.356E+00 0.628E+00   -.725E-02 0.313E-02 0.233E-02
   -.232E+03 0.732E+03 -.114E+04   0.231E+03 -.730E+03 0.114E+04   0.104E+01 -.196E+01 0.263E+01   -.415E-02 0.861E-02 -.186E-01
   0.441E+03 -.678E+03 -.112E+04   -.441E+03 0.676E+03 0.112E+04   -.656E+00 0.209E+01 0.251E+01   0.546E-02 0.537E-02 0.546E-02
   0.509E+03 0.291E+03 -.104E+04   -.509E+03 -.291E+03 0.104E+04   -.642E+00 0.166E+00 0.307E+00   -.238E-02 0.223E-02 0.159E-02
   -.837E+03 -.620E+03 -.931E+03   0.834E+03 0.618E+03 0.929E+03   0.253E+01 0.197E+01 0.206E+01   -.426E-03 0.319E-02 -.383E-02
   -.805E+03 0.330E+03 -.723E+03   0.804E+03 -.332E+03 0.722E+03   0.610E+00 0.185E+01 0.111E+01   -.422E-02 -.305E-02 -.105E-01
   -.140E+03 -.951E+03 -.571E+03   0.139E+03 0.951E+03 0.569E+03   0.101E+01 -.943E-02 0.128E+01   -.354E-02 0.553E-02 0.494E-02
   0.109E+04 -.219E+03 -.658E+03   -.109E+04 0.218E+03 0.658E+03   -.103E+01 0.555E+00 -.222E-01   -.227E-02 0.315E-02 -.736E-02
   0.398E+03 0.101E+04 -.556E+03   -.398E+03 -.101E+04 0.555E+03   0.869E-01 -.433E+00 0.618E+00   -.644E-02 0.845E-02 0.121E-03
   -.135E+04 -.176E+03 -.285E+03   0.135E+04 0.177E+03 0.283E+03   0.328E+01 -.150E+00 0.130E+01   -.127E-02 -.206E-02 -.340E-02
   0.115E+04 0.666E+03 -.407E+03   -.115E+04 -.664E+03 0.406E+03   -.274E+01 -.187E+01 0.394E+00   0.702E-04 0.265E-03 -.466E-02
   -.481E+03 0.937E+03 -.395E+03   0.482E+03 -.936E+03 0.396E+03   -.126E+01 -.166E+01 -.784E+00   0.845E-03 0.156E-01 -.658E-02
   0.498E+03 -.101E+04 -.264E+03   -.496E+03 0.101E+04 0.265E+03   -.193E+01 0.294E-01 -.396E+00   0.443E-02 0.924E-02 0.644E-02
   -.706E+03 -.921E+03 -.114E+03   0.705E+03 0.921E+03 0.113E+03   0.993E+00 -.192E+00 0.835E+00   -.320E-03 0.348E-02 -.763E-03
   -.103E+04 0.522E+03 0.319E+02   0.103E+04 -.521E+03 -.318E+02   0.623E+00 -.241E+00 -.172E+00   0.216E-02 -.147E-02 -.326E-02
   0.123E+04 -.704E+03 0.105E+03   -.123E+04 0.702E+03 -.105E+03   -.499E+01 0.270E+01 -.134E+00   0.489E-02 0.784E-04 0.227E-02
   0.214E+03 0.137E+04 0.135E+03   -.213E+03 -.136E+04 -.134E+03   -.426E+00 -.367E+01 -.960E+00   -.388E-02 0.125E-02 -.100E-01
   0.110E+04 0.132E+03 0.350E+03   -.110E+04 -.134E+03 -.351E+03   -.113E+01 0.155E+01 0.415E+00   -.362E-02 -.888E-02 -.219E-02
   0.509E+02 -.107E+04 0.193E+03   -.504E+02 0.107E+04 -.191E+03   -.584E+00 0.409E+00 -.134E+01   0.673E-02 0.663E-03 0.592E-02
   0.758E+03 0.750E+03 0.341E+03   -.758E+03 -.748E+03 -.342E+03   0.214E+00 -.155E+01 0.474E+00   -.150E-01 -.781E-02 -.802E-02
   -.109E+04 -.233E+03 0.465E+03   0.109E+04 0.232E+03 -.464E+03   0.231E+00 0.103E+01 -.448E+00   0.379E-02 -.526E-03 -.487E-02
   -.658E+03 0.115E+04 0.427E+03   0.656E+03 -.115E+04 -.427E+03   0.176E+01 -.306E+01 -.255E+00   0.268E-02 0.335E-02 -.227E-02
   0.731E+03 -.748E+03 0.688E+03   -.729E+03 0.747E+03 -.688E+03   -.211E+01 0.111E+01 -.101E-01   0.470E-02 -.743E-02 0.156E-01
   0.207E+03 0.809E+03 0.813E+03   -.208E+03 -.808E+03 -.813E+03   0.472E+00 -.119E+01 0.301E+00   -.524E-02 0.169E-02 0.228E-02
   -.719E+03 0.481E+03 0.846E+03   0.719E+03 -.481E+03 -.845E+03   -.381E+00 -.149E+00 -.108E+01   0.310E-02 -.131E-03 -.156E-02
   0.686E+03 0.136E+03 0.836E+03   -.686E+03 -.137E+03 -.835E+03   -.162E+00 0.119E+01 -.927E+00   0.174E-02 -.928E-02 0.385E-02
   0.152E+03 0.251E+03 0.135E+04   -.151E+03 -.251E+03 -.135E+04   -.394E+00 -.262E+00 -.329E+01   -.251E-02 -.565E-02 0.102E-01
   -.561E+03 -.110E+04 0.635E+03   0.559E+03 0.110E+04 -.633E+03   0.110E+01 0.259E+01 -.176E+01   0.423E-02 -.926E-02 0.112E-01
   -.615E+03 -.321E+03 0.120E+04   0.614E+03 0.320E+03 -.120E+04   0.142E+01 0.624E+00 -.256E+01   0.553E-02 -.462E-02 0.551E-02
   0.239E+03 -.645E+03 0.975E+03   -.240E+03 0.645E+03 -.974E+03   0.138E+01 -.792E-01 -.121E+01   0.176E-02 -.521E-02 0.929E-02
 -----------------------------------------------------------------------------------------------
   0.157E+01 -.106E+01 0.495E+00   0.284E-12 0.682E-12 0.387E-11   -.156E+01 0.105E+01 -.494E+00   -.105E-01 0.990E-02 -.922E-03
 
 
 POSITION                                       TOTAL-FORCE (eV/Angst)
 -----------------------------------------------------------------------------------
     15.21046     14.89244     18.18689        -0.004618      0.000080      0.001684
     15.16551     12.16828     18.00369         0.005919     -0.003514      0.003075
     12.89005     16.29435     18.03334        -0.000852     -0.001879     -0.001389
     12.78613     13.52434     17.80603         0.001312     -0.004314      0.002131
     17.46678     16.16856     17.29899        -0.000997      0.001610      0.001508
     17.21254     13.47467     16.71096        -0.002306     -0.004453      0.005128
     15.01618     17.06475     16.41806        -0.000107      0.000402     -0.002370
     10.88738     15.18696     16.56773         0.000220     -0.001971      0.003802
     13.29084     11.24500     16.24327        -0.000454      0.001647      0.002637
     18.98768     15.05985     15.27818         0.000785      0.004038      0.000721
     10.90493     12.52468     16.01815         0.000669      0.000069      0.000668
     16.07363     11.31747     15.55378         0.000930      0.000882      0.008844
     12.51009     17.21234     15.44432        -0.001303     -0.001569     -0.001296
     17.15917     16.99928     14.64710         0.001189     -0.002170     -0.004585
     17.93825     12.80298     14.10099        -0.000612     -0.000040     -0.000768
     10.02055     16.78379     14.43902        -0.004547     -0.000201     -0.002441
     14.21859      9.98469     13.99391         0.001107     -0.002303      0.002613
     10.97707     14.29733     13.88639         0.001612     -0.000597      0.000308
     14.60960     17.48500     13.70084         0.002745      0.000740      0.001077
     12.34939     11.98683     13.70480         0.006957      0.003941     -0.000587
     18.18306     15.17353     12.68489        -0.003070      0.000103     -0.001522
     16.67795     10.65560     12.92520        -0.003687      0.001128     -0.000953
     12.14392     16.59621     12.69488        -0.006020      0.002111     -0.006948
     14.41619     11.77078     11.85508         0.004254      0.001048     -0.003584
     17.01396     12.93968     11.49107         0.000727      0.002117      0.000289
     12.77977     13.99887     11.84070         0.003925     -0.003810     -0.001921
     14.76296     13.69946      9.98915        -0.001794     -0.000558     -0.000530
     16.75650     17.50073     12.01713        -0.002542      0.002382     -0.000556
     16.84036     15.40788     10.30075         0.001272      0.001864     -0.000188
     14.36061     16.22774     11.20289        -0.000711      0.003218     -0.004843
 -----------------------------------------------------------------------------------
    total drift:                               -0.002557     -0.004224     -0.000156


--------------------------------------------------------------------------------------------------------



  FREE ENERGIE OF THE ION-ELECTRON SYSTEM (eV)
  ---------------------------------------------------
  free  energy   TOTEN  =       -78.38359495 eV

  energy  without entropy=      -78.38359495  energy(sigma->0) =      -78.38359495
 
 d Force =-0.3602843E-05[-0.115E-04, 0.434E-05]  d Energy = 0.8709958E-05-0.123E-04
 d Force =-0.1054091E+01[-0.105E+01,-0.105E+01]  d Ewald  =-0.1054091E+01 0.114E-08


--------------------------------------------------------------------------------------------------------


    POTLOK:  cpu time    5.9203: real time    8.2397


--------------------------------------------------------------------------------------------------------




--------------------------------------------------------------------------------------------------------


  
 reached required accuracy - stopping structural energy minimisation
     LOOP+:  cpu time  143.9877: real time  211.3565
    4ORBIT:  cpu time    0.0000: real time    0.0000

 total amount of memory used by VASP MPI-rank0   762414. kBytes
=======================================================================

   base      :      30000. kBytes
   nonlr-proj:      16723. kBytes
   fftplans  :     183145. kBytes
   grid      :     409374. kBytes
   one-center:        466. kBytes
   wavefun   :     122706. kBytes
 
  
  
 General timing and accounting informations for this job:
 ========================================================
  
                  Total CPU time used (sec):    13558.740
                            User time (sec):    13349.899
                          System time (sec):      208.841
                         Elapsed time (sec):    19798.434
  
                   Maximum memory used (kb):     1349672.
                   Average memory used (kb):           0.
  
                          Minor page faults:      7591381
                          Major page faults:            2
                 Voluntary context switches:         7346
